<?xml version="1.0"?>
<VTKFile type="PolyData" version="0.1" byte_order="LittleEndian" compressor="vtkZLibDataCompressor">
	<PolyData>
		<Piece NumberOfPoints="137" NumberOfVerts="0" NumberOfLines="0" NumberOfStrips="0" NumberOfPolys="270">
		<PointData Normals="Normals">
		<DataArray type="Float32" Name="Normals" NumberOfComponents="3" format="ascii">
			-0.010712 -0.512820  0.858429
			 0.145034 -0.243090  0.959100
			-0.200071 -0.374466  0.905399
			-0.469645 -0.416358  0.778511
			-0.525904 -0.626274  0.575506
			-0.181909 -0.939708  0.289584
			 0.541920 -0.544640  0.640070
			 0.481675 -0.874666 -0.054293
			 0.020618 -0.005973  0.999770
			 0.648081  0.457988  0.608472
			 0.897172 -0.015783  0.441400
			-0.235312 -0.204962  0.950063
			-0.827823 -0.560932 -0.008012
			-0.786409 -0.476819  0.392689
			-0.664359 -0.746187  0.042791
			-0.259742 -0.959025 -0.113158
			 0.877737 -0.448697  0.168070
			 0.865043 -0.431565 -0.255838
			 0.535627 -0.839126 -0.094719
			 0.016240 -0.984673 -0.173654
			-0.299351  0.418521  0.857455
			-0.048927  0.652893  0.755868
			 0.316668  0.844117  0.432652
			 0.784481  0.619171  0.034876
			 0.988707  0.073501 -0.130599
			 0.161215  0.692569  0.703106
			-0.279310 -0.331928  0.901005
			 0.184458 -0.141877  0.972546
			-0.890504 -0.451700 -0.054494
			-0.638748 -0.571712  0.514924
			-0.871101 -0.487763  0.057178
			-0.304445 -0.366786  0.879080
			-0.883264 -0.438731 -0.165406
			-0.742678 -0.667725 -0.050721
			-0.470561 -0.866360 -0.167310
			 0.980349 -0.187737 -0.060590
			 0.871959 -0.489571 -0.002755
			 0.581770 -0.794887 -0.172331
			-0.185369 -0.979304 -0.081256
			 0.228694 -0.940958 -0.249595
			 0.503595  0.863928  0.004435
			 0.592815  0.790453  0.154124
			 0.809942  0.585711 -0.030611
			 0.770306  0.260099  0.582217
			 0.211044 -0.159025  0.964454
			-0.134239 -0.463977  0.875617
			-0.648422 -0.561616  0.513942
			-0.798927 -0.549214  0.245111
			-0.813972 -0.560937  0.150993
			-0.880554 -0.448707 -0.152598
			-0.718758 -0.269579 -0.640869
			 0.706857  0.037407  0.706367
			-0.938863 -0.291166 -0.183737
			-0.740165 -0.571463 -0.354381
			-0.838971 -0.268195 -0.473497
			 0.991050  0.133290 -0.007303
			 0.801617 -0.418364 -0.427062
			 0.432928 -0.694635 -0.574505
			-0.245427 -0.800461 -0.546835
			 0.135576 -0.661505 -0.737584
			 0.544082  0.838843  0.017816
			 0.641982  0.766676 -0.008178
			 0.617273  0.423424 -0.663089
			 0.656249  0.729766 -0.191781
			-0.485522 -0.588391  0.646579
			 0.130659 -0.564063  0.815329
			 0.470369 -0.318603  0.822949
			 0.363033 -0.211364  0.907487
			-0.825229 -0.469298  0.314256
			-0.975763 -0.214817  0.041712
			-0.898733 -0.370394 -0.234708
			-0.762059 -0.328445 -0.558023
			-0.441562 -0.015226 -0.897101
			-0.301918 -0.125545 -0.945031
			 0.876171 -0.091952  0.473148
			 0.940337  0.194958 -0.278850
			-0.804006 -0.232794 -0.547157
			-0.910535 -0.176588 -0.373823
			-0.371360 -0.286029 -0.883334
			-0.714931 -0.206175 -0.668106
			-0.704077 -0.125582 -0.698931
			 0.761785  0.199586 -0.616319
			 0.204835 -0.245600 -0.947483
			 0.271631  0.661323 -0.699191
			 0.190716  0.809925 -0.554661
			 0.354841  0.217797 -0.909204
			 0.157192  0.361716 -0.918941
			-0.364710 -0.566468  0.738986
			-0.788809 -0.379669  0.483355
			 0.072590 -0.508999  0.857701
			 0.386736 -0.218689  0.895885
			 0.668323 -0.298362  0.681414
			-0.928625 -0.233538 -0.288297
			-0.833704  0.529089  0.158121
			-0.985748  0.117961 -0.119943
			-0.977567 -0.072443 -0.197773
			-0.892143  0.364579  0.266765
			-0.920277 -0.234931 -0.312886
			-0.909129 -0.159725 -0.384673
			-0.455788 -0.248160 -0.854795
			-0.344301  0.283291 -0.895100
			-0.037295 -0.096747 -0.994610
			 0.975523  0.090968  0.200198
			 0.416426  0.088567 -0.904845
			 0.837798  0.282280 -0.467346
			-0.416867 -0.076097 -0.905776
			-0.291709  0.150408 -0.944608
			 0.174115  0.145477 -0.973920
			-0.700580 -0.150540  0.697514
			-0.310424 -0.297583  0.902819
			-0.111447 -0.029639  0.993328
			 0.005772  0.307214  0.951623
			 0.445881  0.419422  0.790743
			 0.746455  0.002710  0.665430
			-0.733716  0.668196 -0.123187
			-0.927650  0.312243 -0.204866
			-0.194238  0.969123  0.151895
			-0.714201  0.260345  0.649721
			-0.530855  0.769207  0.355687
			-0.708357 -0.004629 -0.705840
			-0.111021 -0.051946 -0.992460
			 0.787796  0.566814  0.241038
			 0.234225  0.509787 -0.827801
			 0.619573  0.687674 -0.378464
			 0.742775  0.666385 -0.064934
			-0.473234  0.083429  0.876977
			-0.386381  0.388285  0.836627
			-0.173409  0.717274  0.674868
			 0.150144  0.877458  0.455549
			-0.194476  0.973303  0.121906
			-0.468983  0.240991 -0.849693
			-0.364461  0.778071 -0.511638
			-0.314239  0.931313  0.184147
			 0.422023  0.906082  0.030213
			-0.132487  0.365553 -0.921313
			 0.012644  0.940850 -0.338588
			 0.385869  0.905720 -0.175435
		</DataArray>
	</PointData>
	<Points>
		<DataArray type="Float32" NumberOfComponents="3" format="ascii">
			 0.017104 -0.098801 -0.040698
			 0.017964 -0.095112 -0.038993
			 0.015775 -0.096212 -0.040419
			 0.012575 -0.096619 -0.040680
			 0.013766 -0.098370 -0.041032
			 0.015253 -0.099120 -0.041025
			 0.018001 -0.097695 -0.040090
			 0.017521 -0.098845 -0.041714
			 0.016220 -0.093480 -0.038647
			 0.018411 -0.093550 -0.039467
			 0.019205 -0.095383 -0.040075
			 0.012883 -0.093091 -0.039166
			 0.013068 -0.097739 -0.041662
			 0.008726 -0.089109 -0.040509
			 0.013584 -0.098333 -0.041684
			 0.014899 -0.099126 -0.042502
			 0.018898 -0.097153 -0.040767
			 0.018888 -0.096730 -0.042743
			 0.017059 -0.097859 -0.044672
			 0.014928 -0.098401 -0.044815
			 0.013759 -0.092848 -0.038864
			 0.014445 -0.092588 -0.038843
			 0.016335 -0.092182 -0.039608
			 0.018591 -0.093437 -0.041783
			 0.019333 -0.095213 -0.042131
			 0.014551 -0.092054 -0.039768
			 0.009335 -0.086533 -0.038169
			 0.010289 -0.086414 -0.038156
			 0.013067 -0.097364 -0.042349
			 0.002863 -0.077950 -0.037875
			 0.004112 -0.082624 -0.041538
			 0.007264 -0.081823 -0.037071
			 0.012696 -0.096797 -0.044479
			 0.013379 -0.098239 -0.042493
			 0.013915 -0.098081 -0.044722
			 0.018569 -0.095656 -0.044412
			 0.018764 -0.096366 -0.046591
			 0.017117 -0.097938 -0.047375
			 0.014877 -0.098458 -0.045983
			 0.016106 -0.098234 -0.047634
			 0.016820 -0.092096 -0.041441
			 0.015110 -0.091486 -0.041543
			 0.018068 -0.093276 -0.044020
			 0.012172 -0.087777 -0.038878
			 0.010169 -0.083958 -0.037439
			 0.005466 -0.077050 -0.035345
			 0.000493 -0.074776 -0.036094
			 0.002244 -0.078009 -0.038969
			 0.000042 -0.074687 -0.037366
			 0.002044 -0.077902 -0.041162
			 0.006262 -0.084716 -0.044079
			 0.009257 -0.081610 -0.037059
			 0.012585 -0.094317 -0.046657
			 0.013968 -0.097317 -0.047729
			 0.012198 -0.092799 -0.046861
			 0.019136 -0.094417 -0.046403
			 0.018247 -0.096248 -0.048712
			 0.017633 -0.097004 -0.048531
			 0.015166 -0.098092 -0.048143
			 0.016036 -0.097950 -0.048238
			 0.017203 -0.092625 -0.043904
			 0.014819 -0.090719 -0.045573
			 0.009681 -0.082043 -0.045860
			 0.017463 -0.092269 -0.048262
			 0.000515 -0.073337 -0.035177
			 0.003417 -0.071494 -0.032172
			 0.006105 -0.073147 -0.033949
			 0.007212 -0.076587 -0.035468
			-0.000558 -0.073474 -0.036839
			-0.002322 -0.070140 -0.038480
			-0.001579 -0.071279 -0.040130
			-0.000972 -0.070814 -0.042414
			 0.009651 -0.087250 -0.046526
			 0.002327 -0.072522 -0.044097
			 0.007693 -0.071829 -0.035175
			 0.007640 -0.074211 -0.042567
			 0.012643 -0.094400 -0.047224
			 0.012401 -0.093087 -0.047330
			 0.015041 -0.097051 -0.048676
			 0.012135 -0.091749 -0.047295
			 0.012501 -0.091893 -0.047704
			 0.018690 -0.094321 -0.048665
			 0.017713 -0.095804 -0.049269
			 0.013683 -0.090335 -0.047090
			 0.015307 -0.090743 -0.047795
			 0.006777 -0.075011 -0.044629
			 0.016800 -0.092654 -0.048922
			 0.001125 -0.070478 -0.031652
			-0.000546 -0.071485 -0.034050
			 0.003112 -0.070636 -0.031389
			 0.004974 -0.068174 -0.030971
			 0.006875 -0.070026 -0.033016
			-0.002245 -0.070037 -0.039999
			-0.002147 -0.067768 -0.039251
			-0.002037 -0.067042 -0.041164
			-0.002129 -0.068490 -0.040638
			-0.001705 -0.067510 -0.035879
			-0.001739 -0.069451 -0.041148
			-0.001706 -0.069035 -0.042147
			 0.001034 -0.070155 -0.044354
			 0.012451 -0.090961 -0.047712
			 0.004729 -0.071802 -0.044466
			 0.007731 -0.066612 -0.034098
			 0.005655 -0.071526 -0.044355
			 0.006116 -0.065388 -0.043655
			 0.013267 -0.093701 -0.047975
			 0.013594 -0.091910 -0.048380
			 0.017896 -0.094252 -0.049258
			 0.000695 -0.069577 -0.031570
			 0.001712 -0.069581 -0.031011
			 0.002581 -0.068828 -0.030605
			 0.004394 -0.066367 -0.030926
			 0.005942 -0.065599 -0.031620
			 0.006500 -0.067790 -0.031795
			-0.000306 -0.064109 -0.043322
			-0.001534 -0.065783 -0.042384
			 0.005782 -0.063612 -0.034675
			 0.000076 -0.067259 -0.032333
			 0.001109 -0.065662 -0.032572
			-0.001111 -0.067389 -0.043515
			 0.002087 -0.068629 -0.045054
			 0.007129 -0.064844 -0.033918
			 0.003513 -0.063542 -0.044499
			 0.005149 -0.063614 -0.043458
			 0.006630 -0.064295 -0.036356
			 0.001426 -0.068693 -0.031029
			 0.001089 -0.066915 -0.031775
			 0.003836 -0.064749 -0.031965
			 0.005062 -0.064123 -0.032882
			 0.002827 -0.062567 -0.042154
			 0.000230 -0.065293 -0.044427
			 0.001076 -0.063175 -0.043646
			 0.003969 -0.064338 -0.033043
			 0.005016 -0.063089 -0.038220
			 0.002564 -0.063816 -0.044649
			 0.002746 -0.062627 -0.043491
			 0.003949 -0.062713 -0.042545
		</DataArray>
	</Points>
			<Polys>
				<DataArray type="Int32" Name="connectivity" format="ascii">
					0 1 2 
					2 3 0 
					3 4 0 
					4 5 0 
					6 1 0 
					7 0 5 
					6 0 7 
					8 2 1 
					8 1 9 
					1 10 9 
					10 1 6 
					8 11 2 
					11 3 2 
					12 4 3 
					12 3 13 
					13 3 11 
					14 4 12 
					5 4 14 
					15 5 14 
					7 5 15 
					16 10 6 
					16 6 7 
					16 7 17 
					7 18 17 
					18 7 19 
					19 7 15 
					20 8 21 
					22 21 8 
					11 8 20 
					9 22 8 
					9 10 23 
					22 9 23 
					24 23 10 
					10 16 24 
					20 25 11 
					11 26 13 
					26 11 27 
					11 25 27 
					14 12 28 
					12 13 28 
					29 30 13 
					26 31 13 
					29 13 31 
					28 13 32 
					30 32 13 
					28 33 14 
					33 15 14 
					15 33 34 
					34 19 15 
					17 24 16 
					17 18 35 
					24 17 35 
					18 36 35 
					36 18 37 
					18 38 39 
					18 39 37 
					19 38 18 
					19 34 38 
					21 25 20 
					25 21 22 
					22 23 40 
					25 22 41 
					40 41 22 
					23 42 40 
					42 23 24 
					42 24 35 
					43 25 41 
					25 43 27 
					27 44 26 
					31 26 44 
					43 44 27 
					32 33 28 
					45 29 31 
					46 29 45 
					47 30 29 
					48 47 29 
					48 29 46 
					30 49 50 
					30 47 49 
					32 30 50 
					51 45 31 
					31 44 51 
					32 52 53 
					32 53 33 
					32 50 54 
					54 52 32 
					34 33 53 
					34 53 38 
					36 55 35 
					35 55 42 
					36 56 55 
					56 36 37 
					37 39 57 
					56 37 57 
					58 38 53 
					58 39 38 
					59 57 39 
					59 39 58 
					41 40 60 
					42 60 40 
					61 62 41 
					43 41 62 
					61 41 60 
					42 63 60 
					63 42 55 
					51 43 62 
					51 44 43 
					64 45 65 
					64 46 45 
					66 65 45 
					67 66 45 
					67 45 51 
					46 64 68 
					68 48 46 
					48 49 47 
					69 48 68 
					69 49 48 
					69 70 49 
					71 50 49 
					71 49 70 
					50 62 72 
					50 71 73 
					73 62 50 
					54 50 72 
					74 51 75 
					62 75 51 
					67 51 74 
					76 52 77 
					53 52 76 
					54 77 52 
					78 53 76 
					78 58 53 
					54 72 79 
					80 77 54 
					80 54 79 
					55 56 81 
					81 63 55 
					56 82 81 
					56 57 82 
					57 59 82 
					78 59 58 
					78 82 59 
					61 60 63 
					62 61 83 
					61 63 84 
					84 83 61 
					62 73 85 
					62 83 72 
					75 62 85 
					81 86 63 
					84 63 86 
					87 64 65 
					88 68 64 
					64 87 88 
					65 89 87 
					90 89 65 
					90 65 91 
					65 66 91 
					74 66 67 
					91 66 74 
					88 69 68 
					69 92 70 
					69 93 94 
					92 69 95 
					69 94 95 
					93 69 96 
					69 88 96 
					70 97 98 
					70 92 97 
					98 71 70 
					99 71 98 
					73 71 99 
					72 100 79 
					72 83 100 
					73 101 85 
					99 101 73 
					102 74 75 
					91 74 102 
					103 75 85 
					75 103 104 
					75 104 102 
					76 77 80 
					105 78 76 
					105 76 80 
					82 78 105 
					100 80 79 
					80 100 106 
					105 80 106 
					107 86 81 
					107 81 82 
					107 82 105 
					83 84 100 
					84 106 100 
					86 106 84 
					103 85 101 
					107 105 86 
					105 106 86 
					108 88 87 
					109 108 87 
					87 89 109 
					96 88 108 
					109 89 110 
					110 89 90 
					111 90 112 
					90 91 113 
					110 90 111 
					113 112 90 
					91 102 113 
					95 97 92 
					93 114 115 
					115 94 93 
					93 96 116 
					93 116 114 
					94 98 95 
					94 115 98 
					98 97 95 
					96 108 117 
					96 118 116 
					118 96 117 
					98 119 99 
					115 119 98 
					99 120 101 
					99 119 120 
					101 120 103 
					102 104 121 
					102 121 113 
					122 104 103 
					122 103 120 
					122 123 104 
					123 124 104 
					121 104 124 
					125 117 108 
					125 108 109 
					110 125 109 
					125 110 126 
					111 126 110 
					126 111 127 
					111 112 127 
					128 127 112 
					121 112 113 
					112 121 128 
					114 119 115 
					129 114 116 
					130 119 114 
					114 131 130 
					129 131 114 
					118 132 116 
					116 121 133 
					116 128 121 
					116 133 129 
					128 116 132 
					118 117 126 
					126 117 125 
					127 118 126 
					118 127 132 
					119 130 120 
					134 120 130 
					134 122 120 
					124 133 121 
					134 131 122 
					135 122 131 
					135 136 122 
					123 122 136 
					123 136 124 
					133 124 136 
					127 128 132 
					131 129 135 
					129 136 135 
					133 136 129 
					131 134 130 
				</DataArray>
				<DataArray type="Int32" Name="offsets" format="ascii">
					3 6 9 12 15 18 21 24 27 30 33 36 39 42 45 48 51 54 57 60 63 66 69 72 75 78 81 84 87 90 93 96 99 102 105 108 111 114 117 120 123 126 129 132 135 138 141 144 147 150 153 156 159 162 165 168 171 174 177 180 183 186 189 192 195 198 201 204 207 210 213 216 219 222 225 228 231 234 237 240 243 246 249 252 255 258 261 264 267 270 273 276 279 282 285 288 291 294 297 300 303 306 309 312 315 318 321 324 327 330 333 336 339 342 345 348 351 354 357 360 363 366 369 372 375 378 381 384 387 390 393 396 399 402 405 408 411 414 417 420 423 426 429 432 435 438 441 444 447 450 453 456 459 462 465 468 471 474 477 480 483 486 489 492 495 498 501 504 507 510 513 516 519 522 525 528 531 534 537 540 543 546 549 552 555 558 561 564 567 570 573 576 579 582 585 588 591 594 597 600 603 606 609 612 615 618 621 624 627 630 633 636 639 642 645 648 651 654 657 660 663 666 669 672 675 678 681 684 687 690 693 696 699 702 705 708 711 714 717 720 723 726 729 732 735 738 741 744 747 750 753 756 759 762 765 768 771 774 777 780 783 786 789 792 795 798 801 804 807 810 
				</DataArray>
			</Polys>
		</Piece>
	</PolyData>
</VTKFile>
