<?xml version="1.0"?>
<VTKFile type="PolyData" version="0.1" byte_order="LittleEndian" compressor="vtkZLibDataCompressor">
	<PolyData>
		<Piece NumberOfPoints="384" NumberOfVerts="0" NumberOfLines="0" NumberOfStrips="0" NumberOfPolys="768">
		<PointData Normals="Normals">
		<DataArray type="Float32" Name="Normals" NumberOfComponents="3" format="ascii">
			-0.298819  0.117372 -0.947064
			 0.503639  0.544056 -0.671082
			-0.031801  0.277177 -0.960293
			-0.362499  0.194849 -0.911388
			-0.220082  0.032118 -0.974953
			-0.316487 -0.063037 -0.946500
			-0.379700  0.055106 -0.923467
			-0.126218  0.140803 -0.981959
			 0.328575  0.304821 -0.893937
			 0.220487  0.574400 -0.788321
			 0.807855  0.316276 -0.497333
			 0.240545  0.887361 -0.393356
			 0.541188  0.168709 -0.823804
			 0.536902  0.438192 -0.720919
			 0.696760  0.717226 -0.010549
			 0.936472  0.300042  0.181647
			 0.122226 -0.014622 -0.992394
			 0.086344  0.634100 -0.768415
			 0.652011  0.585377 -0.481888
			 0.646073  0.246136 -0.722500
			 0.814846  0.459276 -0.353682
			-0.219529 -0.272062 -0.936904
			-0.165688 -0.000615 -0.986178
			-0.257333  0.172522 -0.950797
			 0.228986 -0.103730 -0.967887
			 0.205142 -0.009977 -0.978681
			-0.160222 -0.122715 -0.979423
			 0.118334 -0.631424 -0.766355
			 0.462574 -0.386476 -0.797911
			 0.096669 -0.109412 -0.989285
			-0.022049  0.436853 -0.899262
			-0.603111  0.289509 -0.743264
			 0.011220  0.351282 -0.936203
			 0.674612  0.205189 -0.709082
			 0.981769  0.060544  0.180175
			 0.527120  0.849464 -0.023559
			 0.687961  0.552147  0.471003
			 0.534937  0.128315 -0.835091
			 0.842778  0.340116  0.417189
			 0.871019  0.383743  0.306704
			 0.946843  0.264500  0.183105
			 0.657127  0.005287  0.753762
			 0.757861  0.213206  0.616595
			 0.814707 -0.060474 -0.576710
			 0.824771  0.524623  0.211005
			 0.957725  0.261729 -0.119421
			-0.141385 -0.718336 -0.681178
			-0.423166 -0.451505 -0.785541
			-0.503683 -0.246407 -0.828002
			 0.642318 -0.157646 -0.750050
			 0.131509 -0.172617 -0.976171
			 0.249738 -0.281255 -0.926567
			 0.087630 -0.334417 -0.938342
			 0.570259 -0.142580 -0.808997
			-0.286319 -0.336614 -0.897058
			-0.044896 -0.778206 -0.626402
			 0.379011 -0.832550 -0.403995
			 0.606853 -0.631202 -0.483025
			 0.884270 -0.223612 -0.409956
			 0.168314 -0.007796 -0.985703
			-0.550767  0.018725 -0.834449
			-0.795836  0.163099 -0.583133
			-0.817627  0.013985 -0.575578
			-0.260048  0.275090 -0.925581
			 0.995456 -0.038050  0.087291
			 0.549281  0.284770 -0.785619
			 0.110719  0.258374 -0.959679
			 0.675596 -0.150405  0.721767
			 0.948287  0.219110  0.229660
			 0.975131  0.058193  0.213854
			 0.819066  0.138645  0.556694
			 0.964846  0.215423  0.150549
			 0.795014  0.290128  0.532708
			 0.880718  0.333952  0.335874
			 0.470611  0.385895  0.793480
			-0.129752 -0.166859  0.977406
			 0.378486  0.016562  0.925459
			 0.082577 -0.049389  0.995360
			 0.990170  0.045687 -0.132199
			-0.067823 -0.901128 -0.428215
			-0.470093 -0.824225 -0.315699
			-0.566897 -0.545216 -0.617550
			-0.473616 -0.086490 -0.876474
			-0.174730 -0.250581 -0.952197
			-0.008251 -0.416743 -0.908987
			-0.444134 -0.488169 -0.751290
			 0.327985 -0.925669 -0.188584
			 0.656986 -0.752194 -0.050731
			 0.837522 -0.360270 -0.410806
			 0.916186 -0.400598  0.011158
			-0.754229  0.186853 -0.629464
			-0.974378  0.032841 -0.222507
			-0.978050 -0.056126  0.200671
			-0.988460 -0.000009 -0.151482
			-0.737499 -0.212990 -0.640883
			-0.892155 -0.357123 -0.276626
			-0.931714 -0.062141 -0.357838
			-0.234280  0.175599 -0.956179
			-0.793857  0.113927 -0.597337
			 0.859677  0.167955 -0.482439
			 0.941443 -0.219896  0.255597
			 0.657223 -0.297492  0.692500
			 0.614503  0.188027 -0.766180
			 0.153355  0.300195 -0.941470
			 0.203297 -0.270597  0.940982
			 0.754445 -0.461893  0.466334
			 0.836060 -0.181859  0.517620
			 0.968257  0.019751  0.249176
			 0.253497  0.138617  0.957353
			 0.661786 -0.153296  0.733853
			-0.022156  0.025582  0.999427
			-0.704525 -0.051312  0.707822
			-0.794439 -0.082975  0.601649
			 0.312678 -0.291543  0.904011
			 0.105515 -0.125119  0.986515
			 0.180187 -0.029922  0.983177
			-0.165262  0.065086  0.984100
			 0.182749 -0.962828  0.198909
			-0.305235 -0.920887  0.242485
			-0.621647 -0.783266 -0.007062
			-0.730584 -0.417049 -0.540664
			-0.991095  0.118615 -0.060512
			-0.871070  0.140820  0.470539
			-0.948634  0.048294 -0.312668
			-0.520371 -0.563881  0.641290
			-0.878981 -0.330002  0.344225
			-0.945286 -0.224732 -0.236496
			-0.865948 -0.443469 -0.231233
			 0.358235  0.130468 -0.924471
			-0.007816  0.009700 -0.999922
			-0.460937  0.005715 -0.887414
			-0.831161  0.039585 -0.554621
			-0.987850  0.051569 -0.146607
			-0.985132  0.157876  0.067750
			 0.886215 -0.016367 -0.462985
			 0.964648 -0.261726  0.030893
			 0.646224 -0.438666  0.624474
			 0.532910 -0.420383  0.734360
			-0.023621 -0.330097  0.943651
			 0.523943  0.083868 -0.847614
			 0.743053 -0.009854 -0.669160
			 0.416022 -0.610792  0.673691
			 0.539349 -0.449477  0.712091
			 0.623634 -0.234571  0.745692
			-0.130207 -0.068179  0.989140
			-0.618718 -0.030574  0.785018
			-0.087038 -0.159070  0.983423
			 0.194553 -0.234325  0.952492
			-0.755358 -0.062804  0.652296
			-0.040721 -0.518433  0.854148
			 0.036595 -0.484237  0.874171
			-0.435093 -0.285464  0.853935
			-0.457600  0.070366  0.886370
			-0.085840 -0.773959  0.627391
			-0.734567 -0.091001  0.672406
			-0.998731 -0.033845 -0.037294
			-0.191402 -0.345941  0.918526
			-0.228825 -0.369602  0.900574
			-0.197147 -0.219527  0.955480
			-0.509213 -0.455201  0.730407
			-0.865273 -0.491013  0.101043
			-0.479100 -0.669081  0.568149
			-0.768872 -0.560751  0.307238
			-0.465691  0.005771 -0.884929
			-0.067516 -0.135832 -0.988429
			 0.313553  0.045039 -0.948502
			-0.778935  0.085241 -0.621285
			-0.972051  0.056484 -0.227874
			-0.970850 -0.176118  0.162579
			-0.959952 -0.020206  0.279435
			-0.806039 -0.078705  0.586607
			 0.851633 -0.110740 -0.512306
			 0.928735 -0.368366 -0.041923
			 0.620093 -0.557995  0.551476
			 0.828034 -0.098860 -0.551893
			 0.236115 -0.418177  0.877142
			 0.044296 -0.435013  0.899334
			-0.148582 -0.500398  0.852950
			 0.510799  0.112982 -0.852244
			 0.636569  0.049016 -0.769660
			 0.472884  0.143635 -0.869338
			-0.070383 -0.216883  0.973657
			-0.575837 -0.256898  0.776154
			-0.651826 -0.347125  0.674260
			-0.309860 -0.675755  0.668836
			 0.423940 -0.005405 -0.905674
			 0.458513 -0.255890 -0.851050
			 0.462747 -0.077965 -0.883055
			-0.760976 -0.214053 -0.612451
			-0.380535 -0.443664 -0.811391
			-0.961415  0.046930 -0.271068
			-0.996144 -0.034807 -0.080530
			-0.735008 -0.325532  0.594804
			-0.904013 -0.361777  0.227765
			-0.707244 -0.270456  0.653192
			 0.831666 -0.053699 -0.552674
			 0.960989 -0.270712  0.056703
			 0.959641 -0.129498 -0.249637
			 0.874016 -0.392039  0.287057
			-0.056134 -0.578329  0.813870
			 0.230485 -0.642592  0.730720
			 0.153020 -0.388485  0.908661
			 0.668523 -0.533240  0.518394
			-0.009711 -0.359777  0.932988
			-0.023460 -0.111075  0.993535
			 0.161534 -0.132401  0.977945
			-0.532875 -0.491060  0.689133
			 0.481507  0.205436 -0.852025
			 0.701746  0.042496 -0.711159
			 0.583886  0.094844 -0.806277
			 0.549944  0.233344 -0.801943
			 0.653483  0.015564 -0.756781
			 0.457965 -0.197589 -0.866733
			-0.892563 -0.143250 -0.427565
			-0.536468 -0.100011 -0.837973
			-0.884438  0.255303 -0.390628
			-0.941948  0.245417 -0.229140
			-0.984914  0.002349 -0.173031
			-0.995236  0.048015 -0.084852
			-0.919666  0.060708 -0.387981
			-0.731165 -0.470416  0.494071
			-0.480900 -0.584719  0.653330
			-0.810819 -0.372856  0.451166
			-0.970590 -0.027708  0.239138
			 0.972312  0.044471 -0.229414
			 0.999392  0.012330  0.032615
			 0.938075 -0.099144  0.331942
			 0.834705 -0.235029  0.498025
			-0.256776 -0.371607  0.892174
			-0.153343 -0.373323  0.914940
			-0.155992 -0.539377  0.827490
			-0.001126 -0.518534  0.855056
			-0.050404 -0.688801  0.723196
			 0.549322 -0.505099  0.665673
			 0.253917 -0.390711  0.884800
			 0.149582 -0.285146  0.946740
			-0.111522 -0.563711  0.818409
			 0.055625 -0.313805  0.947857
			 0.391348 -0.299797  0.870039
			 0.669151  0.210328 -0.712741
			 0.328230  0.564275 -0.757535
			 0.719757  0.360842 -0.593079
			 0.713609  0.127680 -0.688811
			 0.169941  0.252315 -0.952606
			-0.450887  0.369777 -0.812383
			-0.912385  0.214995 -0.348326
			-0.970546  0.192750 -0.144526
			-0.979214  0.185030  0.083088
			-0.964952  0.209033  0.158658
			-0.899363  0.254339 -0.355608
			-0.986045  0.157431 -0.054132
			-0.965876  0.219496  0.137495
			-0.979625  0.199108  0.026270
			-0.959746  0.072850 -0.271258
			-0.582730  0.302365 -0.754321
			 0.051765 -0.451470  0.890784
			-0.661392 -0.380952  0.646093
			-0.877137  0.099115  0.469901
			-0.786941  0.179912  0.590216
			-0.769654  0.074856  0.634058
			 0.990944 -0.132140  0.023854
			 0.936912 -0.308475  0.164436
			 0.993244 -0.079564  0.084479
			 0.950566 -0.258582  0.171930
			 0.915686 -0.293215  0.274854
			 0.782735 -0.340599  0.520882
			 0.398337 -0.354595  0.845926
			-0.310790 -0.199036  0.929405
			-0.169064 -0.240234  0.955879
			 0.106514 -0.200060  0.973977
			 0.454908 -0.071373  0.887674
			 0.035239 -0.629915  0.775864
			-0.373155 -0.664918  0.647023
			-0.399933 -0.646731  0.649455
			-0.229378 -0.610540  0.758041
			 0.278618 -0.413406  0.866872
			-0.300134 -0.454215  0.838814
			 0.194543 -0.230150  0.953511
			 0.682360  0.422750 -0.596379
			 0.191486  0.607932 -0.770553
			 0.608355  0.469083 -0.640207
			 0.933447 -0.247737  0.259429
			 0.593711  0.510297 -0.622177
			 0.298273  0.563694 -0.770249
			 0.212895  0.506820 -0.835349
			-0.859350  0.356655 -0.366491
			-0.756497  0.136323  0.639632
			-0.787052  0.611884  0.078409
			-0.920029  0.303072  0.248383
			-0.713581  0.696094 -0.079089
			-0.927633  0.263526 -0.264670
			-0.896201  0.443636 -0.003293
			-0.781323  0.583182  0.222337
			-0.816846  0.572322 -0.072185
			-0.830129  0.497634 -0.251488
			-0.707974  0.359745 -0.607747
			-0.015061  0.770044 -0.637813
			-0.460975 -0.299108  0.835486
			-0.419521  0.213926  0.882177
			-0.403799  0.135369  0.904777
			 0.976240  0.073952 -0.203685
			 0.940515 -0.311963  0.134578
			 0.920650 -0.277049  0.275042
			 0.962714  0.166014  0.213593
			 0.524061 -0.478150  0.704792
			 0.794945 -0.154851  0.586587
			 0.184669 -0.357321  0.915543
			-0.360605 -0.151507  0.920331
			-0.336908 -0.086550  0.937551
			 0.438928 -0.160663  0.884042
			-0.411017 -0.220323  0.884603
			-0.298225 -0.377678  0.876596
			 0.017917 -0.017806  0.999681
			-0.273286 -0.569773  0.775031
			-0.376571 -0.286562  0.880952
			-0.287829 -0.547189  0.785963
			-0.273327 -0.363993  0.890394
			 0.392664 -0.389824  0.832978
			-0.377822 -0.238160  0.894724
			 0.322583 -0.144592  0.935432
			 0.615813  0.466038 -0.635282
			 0.304764  0.497063 -0.812433
			 0.562154  0.793599 -0.232772
			 0.739969  0.579949 -0.340743
			-0.722990  0.464427 -0.511462
			-0.598521  0.073071  0.797767
			-0.198256  0.072636  0.977455
			-0.789772  0.431384  0.436083
			-0.264630  0.957667  0.113337
			-0.306405  0.946271 -0.103380
			-0.805387  0.590889 -0.046924
			-0.476745  0.879035 -0.003584
			-0.712228  0.560456 -0.422635
			-0.597950  0.784539  0.164179
			-0.345424  0.923100  0.169022
			-0.457655  0.889106 -0.006472
			 0.604608  0.670067 -0.430651
			 0.976613  0.172888  0.127818
			 0.873854  0.235704  0.425232
			 0.378528  0.824972  0.419688
			 0.744672  0.622316  0.241220
			-0.368175 -0.329938  0.869246
			-0.109451 -0.307050  0.945379
			 0.262860  0.478995  0.837537
			-0.370636 -0.098999  0.923487
			-0.354586 -0.040225  0.934158
			 0.565770 -0.172400  0.806339
			 0.622561 -0.383012  0.682436
			-0.316079 -0.137580  0.938704
			-0.183502 -0.177709  0.966823
			 0.677159  0.408007 -0.612361
			 0.710420  0.698301  0.087632
			 0.271945  0.960044  0.066037
			-0.104979  0.942070  0.318566
			 0.275088  0.891525  0.359876
			 0.798147  0.576459  0.175090
			-0.640616  0.745909 -0.182291
			-0.722383  0.166887  0.671053
			-0.704462  0.657390  0.267529
			-0.566637 -0.011389  0.823889
			-0.438134  0.014483  0.898793
			-0.461319  0.026448  0.886840
			-0.220898  0.974105  0.048215
			-0.120312  0.991333  0.052767
			-0.249225  0.968253  0.019291
			-0.378675  0.915591  0.135274
			-0.434096  0.898470 -0.065667
			-0.249214  0.944913  0.212206
			-0.351261  0.900129  0.257650
			 0.787588  0.341471  0.512936
			 0.267275  0.794862  0.544756
			-0.224026  0.609463  0.760505
			-0.050594  0.858858  0.509709
			-0.285134 -0.501057  0.817093
			-0.440641 -0.185619  0.878283
			-0.332104  0.096701  0.938273
			-0.304891  0.304489  0.902401
			-0.234966  0.184913  0.954253
			-0.486383 -0.037484  0.872941
			 0.381451  0.689117  0.616128
			-0.086965  0.978122  0.188981
			-0.219694  0.679151  0.700349
			-0.647854 -0.131149  0.750390
			 0.295680  0.796291  0.527725
		</DataArray>
	</PointData>
	<Points>
		<DataArray type="Float32" NumberOfComponents="3" format="ascii">
			 0.002313 -0.056395 -0.040445
			 0.000487 -0.053311 -0.039273
			 0.004308 -0.056503 -0.041216
			-0.000105 -0.063745 -0.039970
			-0.000648 -0.061851 -0.039940
			 0.001634 -0.062439 -0.041233
			 0.000736 -0.058029 -0.040156
			 0.000928 -0.056493 -0.040225
			 0.000647 -0.054696 -0.039565
			-0.002739 -0.051102 -0.039892
			-0.000742 -0.048209 -0.036139
			 0.002466 -0.054535 -0.040061
			 0.000437 -0.055039 -0.040039
			-0.001300 -0.052787 -0.040695
			 0.001566 -0.054086 -0.038255
			 0.000427 -0.052184 -0.035461
			 0.003907 -0.059822 -0.041639
			 0.003748 -0.054994 -0.040668
			 0.004226 -0.055570 -0.040928
			 0.004981 -0.057351 -0.041260
			 0.004708 -0.056027 -0.040516
			 0.000597 -0.064103 -0.040412
			-0.000218 -0.064374 -0.040370
			-0.001062 -0.063438 -0.039636
			-0.001189 -0.061170 -0.039773
			-0.000859 -0.060489 -0.039595
			-0.001606 -0.062131 -0.039768
			 0.001962 -0.064410 -0.040507
			 0.003445 -0.062326 -0.041294
			 0.000086 -0.057690 -0.039748
			-0.002316 -0.052769 -0.041182
			-0.003538 -0.052223 -0.039934
			-0.003998 -0.043061 -0.036503
			-0.001736 -0.038263 -0.034060
			-0.001192 -0.041149 -0.033045
			 0.003720 -0.054691 -0.039961
			 0.002127 -0.054756 -0.038120
			-0.001068 -0.054128 -0.040957
			 0.001651 -0.058564 -0.035288
			-0.000024 -0.055561 -0.032237
			 0.001250 -0.057732 -0.034569
			-0.002937 -0.044993 -0.030817
			-0.000811 -0.052838 -0.032217
			 0.005116 -0.058468 -0.041208
			 0.004572 -0.055768 -0.039769
			 0.005112 -0.057002 -0.040544
			 0.000606 -0.064841 -0.039766
			-0.001068 -0.064339 -0.040084
			-0.001860 -0.063874 -0.039432
			-0.000999 -0.059977 -0.039968
			-0.001988 -0.056628 -0.040881
			-0.002022 -0.059438 -0.040513
			-0.002351 -0.060623 -0.040000
			-0.000739 -0.059142 -0.039802
			-0.002481 -0.062356 -0.039429
			 0.001301 -0.065087 -0.039800
			 0.001861 -0.065138 -0.039509
			 0.003204 -0.064102 -0.039486
			 0.005058 -0.060781 -0.040281
			-0.002016 -0.054205 -0.041655
			-0.002983 -0.053869 -0.041253
			-0.006375 -0.041113 -0.034501
			-0.004396 -0.055646 -0.039646
			-0.004060 -0.037967 -0.034561
			-0.001493 -0.033446 -0.032047
			-0.001880 -0.030721 -0.032392
			-0.002334 -0.033195 -0.033159
			-0.003772 -0.040075 -0.029371
			 0.005336 -0.058247 -0.039136
			 0.005457 -0.059103 -0.038851
			 0.004822 -0.060752 -0.037073
			 0.001417 -0.059483 -0.033352
			 0.002089 -0.059981 -0.034464
			 0.000968 -0.057103 -0.031397
			-0.000415 -0.055584 -0.031448
			-0.006937 -0.045475 -0.029017
			-0.002664 -0.055949 -0.030627
			-0.005538 -0.051640 -0.029380
			 0.005293 -0.057889 -0.040437
			 0.000354 -0.065726 -0.038700
			-0.002057 -0.065749 -0.037092
			-0.003347 -0.063925 -0.038118
			-0.003225 -0.056955 -0.040352
			-0.002920 -0.059829 -0.040617
			-0.002783 -0.061420 -0.039752
			-0.003482 -0.062745 -0.038935
			 0.001615 -0.065692 -0.038360
			 0.003839 -0.064384 -0.037272
			 0.005001 -0.061753 -0.039889
			 0.004727 -0.063020 -0.038617
			-0.006699 -0.034112 -0.031688
			-0.007731 -0.034533 -0.029405
			-0.007484 -0.045409 -0.029567
			-0.007352 -0.050367 -0.032129
			-0.004631 -0.060527 -0.039328
			-0.005749 -0.062623 -0.035792
			-0.005685 -0.056433 -0.036100
			-0.005448 -0.028183 -0.031471
			-0.006590 -0.031542 -0.031210
			-0.001698 -0.028343 -0.031023
			-0.001389 -0.029083 -0.028411
			-0.004686 -0.032660 -0.026414
			-0.002163 -0.027924 -0.031120
			-0.002627 -0.030487 -0.032343
			-0.006154 -0.037854 -0.027198
			 0.003583 -0.064329 -0.036288
			 0.001684 -0.062735 -0.033572
			 0.001508 -0.059328 -0.032377
			 0.000270 -0.057873 -0.030555
			 0.000957 -0.059060 -0.031232
			-0.000918 -0.056391 -0.031154
			-0.007163 -0.050578 -0.029937
			-0.007689 -0.030028 -0.026065
			-0.003471 -0.057232 -0.030542
			-0.005805 -0.056691 -0.029411
			-0.005154 -0.053669 -0.029660
			-0.006317 -0.054006 -0.029640
			 0.000210 -0.066212 -0.035133
			-0.003020 -0.065454 -0.034132
			-0.004258 -0.064938 -0.034447
			-0.004690 -0.061592 -0.038652
			-0.007944 -0.029595 -0.028057
			-0.007200 -0.054665 -0.029837
			-0.007409 -0.055791 -0.032154
			-0.005015 -0.063785 -0.032798
			-0.005822 -0.062479 -0.032869
			-0.006053 -0.060097 -0.033584
			-0.007059 -0.059712 -0.032132
			-0.002598 -0.027814 -0.031635
			-0.004263 -0.021105 -0.031212
			-0.005250 -0.021221 -0.030948
			-0.006322 -0.021396 -0.030023
			-0.007164 -0.026064 -0.029011
			-0.007541 -0.026558 -0.027386
			-0.001457 -0.025903 -0.030208
			-0.000861 -0.024128 -0.027739
			-0.002089 -0.023455 -0.023571
			-0.004203 -0.027800 -0.024604
			-0.005049 -0.027719 -0.024197
			-0.002063 -0.022991 -0.030905
			-0.001780 -0.025258 -0.030638
			-0.000540 -0.064835 -0.033021
			 0.001077 -0.063018 -0.032891
			 0.000828 -0.061090 -0.031761
			-0.000955 -0.059396 -0.030792
			-0.001609 -0.060493 -0.031198
			-0.002427 -0.059646 -0.031487
			-0.003039 -0.059125 -0.031219
			-0.006699 -0.027295 -0.025103
			-0.005472 -0.059116 -0.030484
			-0.004791 -0.059662 -0.031327
			-0.007025 -0.056803 -0.029674
			-0.006977 -0.055076 -0.029573
			-0.001910 -0.065409 -0.033426
			-0.007679 -0.056956 -0.030374
			-0.008026 -0.057184 -0.031358
			-0.001725 -0.062726 -0.031479
			-0.005245 -0.062035 -0.032286
			-0.002168 -0.060464 -0.031648
			-0.005765 -0.060961 -0.031916
			-0.006106 -0.060692 -0.032489
			-0.006453 -0.059980 -0.031611
			-0.007324 -0.059227 -0.031562
			-0.005426 -0.017868 -0.031317
			-0.004321 -0.016142 -0.031349
			-0.003450 -0.020858 -0.031106
			-0.005608 -0.016634 -0.030883
			-0.007274 -0.018068 -0.027480
			-0.007115 -0.021612 -0.026385
			-0.006670 -0.023803 -0.026115
			-0.005450 -0.024698 -0.023617
			-0.001057 -0.023597 -0.029918
			 0.000461 -0.020463 -0.027582
			-0.001143 -0.020059 -0.021628
			 0.000241 -0.020249 -0.028869
			-0.003335 -0.021762 -0.021378
			-0.004300 -0.025393 -0.023027
			-0.004445 -0.023251 -0.022170
			-0.001058 -0.018279 -0.029377
			-0.000889 -0.021656 -0.029773
			-0.002596 -0.020878 -0.030703
			-0.001261 -0.061070 -0.030796
			-0.004851 -0.025125 -0.023089
			-0.007723 -0.057695 -0.030419
			-0.006712 -0.059321 -0.031086
			-0.003275 -0.019260 -0.030966
			-0.003052 -0.016302 -0.031233
			-0.003301 -0.017806 -0.031152
			-0.005576 -0.015636 -0.030897
			-0.004914 -0.015473 -0.031700
			-0.006651 -0.015047 -0.028099
			-0.007404 -0.017749 -0.025495
			-0.005766 -0.021945 -0.022841
			-0.007007 -0.019918 -0.022383
			-0.004833 -0.023284 -0.022642
			 0.001089 -0.017166 -0.027696
			 0.002095 -0.016456 -0.024794
			 0.002062 -0.016329 -0.025906
			 0.001200 -0.017744 -0.022088
			-0.001305 -0.018550 -0.020297
			-0.000666 -0.016654 -0.018893
			-0.002112 -0.020251 -0.021150
			 0.000781 -0.017187 -0.020697
			-0.004297 -0.022096 -0.021398
			-0.002969 -0.020090 -0.021018
			-0.004474 -0.019941 -0.021062
			-0.004864 -0.022154 -0.021599
			-0.000766 -0.016692 -0.028987
			-0.002044 -0.016166 -0.029814
			-0.002384 -0.019309 -0.030283
			 0.000746 -0.015645 -0.028156
			-0.002195 -0.017966 -0.029905
			-0.003244 -0.015504 -0.031712
			-0.005974 -0.014894 -0.030402
			-0.005248 -0.014751 -0.031877
			-0.007145 -0.014899 -0.026000
			-0.007373 -0.013771 -0.024772
			-0.007670 -0.015549 -0.025286
			-0.006686 -0.013051 -0.027759
			-0.006434 -0.011822 -0.028972
			-0.005108 -0.022147 -0.022542
			-0.006129 -0.020440 -0.020998
			-0.007108 -0.018542 -0.020332
			-0.007684 -0.015459 -0.020687
			 0.001846 -0.015006 -0.026407
			 0.002271 -0.015280 -0.024750
			 0.001543 -0.015783 -0.021322
			 0.000817 -0.016294 -0.020113
			-0.002087 -0.018633 -0.020677
			-0.002455 -0.015338 -0.018293
			-0.001626 -0.015367 -0.018003
			-0.002864 -0.016048 -0.018520
			-0.002611 -0.017482 -0.019915
			 0.000011 -0.016495 -0.019162
			-0.000940 -0.015950 -0.018320
			-0.005374 -0.019778 -0.020797
			-0.003239 -0.018651 -0.021112
			-0.004334 -0.018384 -0.021032
			-0.005429 -0.018026 -0.020378
			-0.001395 -0.015074 -0.028790
			 0.000216 -0.014419 -0.027463
			 0.001781 -0.013037 -0.026233
			-0.002814 -0.014217 -0.031542
			-0.003967 -0.013889 -0.031932
			-0.005260 -0.013842 -0.031705
			-0.007694 -0.014823 -0.025128
			-0.006476 -0.011732 -0.025603
			-0.007945 -0.013665 -0.022140
			-0.006661 -0.010160 -0.021296
			-0.006784 -0.011145 -0.024274
			-0.007014 -0.010890 -0.023388
			-0.006671 -0.010441 -0.027368
			-0.006463 -0.010540 -0.025465
			-0.006676 -0.010427 -0.028362
			-0.005643 -0.011643 -0.030126
			-0.006426 -0.018306 -0.019888
			-0.007078 -0.017433 -0.019514
			-0.007269 -0.015684 -0.019273
			-0.006723 -0.014700 -0.019252
			-0.006944 -0.013892 -0.019319
			 0.001882 -0.013002 -0.025320
			 0.001724 -0.012880 -0.024175
			 0.001530 -0.012866 -0.023139
			 0.001318 -0.013479 -0.020340
			 0.000829 -0.013208 -0.019041
			 0.000504 -0.013635 -0.017959
			-0.000429 -0.015530 -0.018215
			-0.002493 -0.014397 -0.018111
			-0.003119 -0.015317 -0.018285
			-0.001807 -0.014627 -0.017687
			-0.001765 -0.014077 -0.017928
			-0.003149 -0.016971 -0.019101
			-0.003807 -0.017756 -0.020247
			-0.003475 -0.017567 -0.019772
			-0.004466 -0.017407 -0.020440
			-0.005647 -0.016148 -0.019601
			-0.005136 -0.016150 -0.019547
			-0.006424 -0.015639 -0.018586
			-0.000522 -0.012678 -0.026954
			 0.001030 -0.010962 -0.024003
			 0.002337 -0.010268 -0.023560
			 0.002162 -0.011673 -0.023934
			-0.002698 -0.013082 -0.030747
			-0.003919 -0.012800 -0.031373
			-0.003982 -0.011387 -0.030431
			-0.006463 -0.010133 -0.024211
			-0.006148 -0.011552 -0.019164
			-0.006569 -0.008578 -0.020796
			-0.006596 -0.009226 -0.021760
			-0.006259 -0.008821 -0.021719
			-0.006845 -0.009950 -0.023484
			-0.005452 -0.008572 -0.024757
			-0.005753 -0.008245 -0.026648
			-0.006406 -0.008356 -0.027916
			-0.005914 -0.009470 -0.024355
			-0.006315 -0.008953 -0.028723
			-0.004512 -0.007833 -0.028877
			-0.006987 -0.016587 -0.019014
			-0.006141 -0.014040 -0.018674
			-0.006156 -0.013202 -0.018882
			 0.002750 -0.010672 -0.023207
			 0.002335 -0.011124 -0.022051
			 0.001919 -0.012090 -0.020055
			 0.001418 -0.011513 -0.018600
			 0.000606 -0.013017 -0.017554
			 0.001296 -0.011787 -0.017307
			-0.000258 -0.013738 -0.017493
			-0.001215 -0.013835 -0.017703
			-0.003414 -0.014651 -0.018389
			-0.001807 -0.013622 -0.017602
			-0.002907 -0.013660 -0.017907
			-0.003597 -0.016095 -0.018586
			-0.001564 -0.013305 -0.018052
			-0.004333 -0.016409 -0.019385
			-0.003983 -0.015527 -0.018532
			-0.004756 -0.015952 -0.019058
			-0.005135 -0.015195 -0.019102
			-0.005661 -0.015312 -0.019096
			-0.004784 -0.015050 -0.018706
			-0.005687 -0.014443 -0.018660
			-0.000344 -0.010353 -0.024062
			 0.000693 -0.009111 -0.023165
			 0.000578 -0.007794 -0.022072
			 0.002275 -0.009574 -0.022955
			-0.006521 -0.009378 -0.023533
			-0.005961 -0.009613 -0.019392
			-0.005104 -0.013383 -0.018785
			-0.006518 -0.009057 -0.020036
			-0.005905 -0.008669 -0.020794
			-0.005875 -0.008411 -0.021512
			-0.006711 -0.009118 -0.022872
			-0.005740 -0.008729 -0.022259
			-0.006052 -0.009138 -0.023753
			-0.005023 -0.007926 -0.024425
			-0.004485 -0.007347 -0.025465
			-0.005419 -0.007839 -0.027389
			-0.001874 -0.007124 -0.025310
			 0.002627 -0.010240 -0.022681
			 0.002069 -0.010868 -0.020338
			-0.002093 -0.009078 -0.018353
			 0.001283 -0.011066 -0.017695
			-0.000652 -0.012495 -0.017212
			-0.000295 -0.012176 -0.016899
			 0.000066 -0.010706 -0.016931
			-0.003615 -0.013702 -0.018518
			-0.003793 -0.010717 -0.018055
			-0.001764 -0.012817 -0.017479
			-0.001665 -0.012114 -0.017880
			-0.004010 -0.012865 -0.018396
			-0.005150 -0.014216 -0.018859
			-0.000400 -0.007313 -0.022694
			 0.001878 -0.008991 -0.022419
			-0.000198 -0.007030 -0.022177
			-0.001793 -0.007365 -0.021378
			-0.000624 -0.007830 -0.020181
			 0.002330 -0.009496 -0.022392
			-0.006443 -0.008756 -0.023160
			-0.005816 -0.008822 -0.019252
			-0.006143 -0.008483 -0.019853
			-0.005173 -0.009098 -0.018677
			-0.004878 -0.012464 -0.018504
			-0.004988 -0.011033 -0.018828
			-0.004760 -0.008227 -0.020981
			-0.004681 -0.008187 -0.020210
			-0.004917 -0.008259 -0.021689
			-0.005337 -0.008313 -0.022746
			-0.005386 -0.008285 -0.023531
			-0.004110 -0.007987 -0.024056
			-0.002631 -0.007466 -0.023526
			 0.002329 -0.010142 -0.021709
			-0.001449 -0.008199 -0.019066
			-0.002848 -0.008967 -0.018122
			-0.003653 -0.008757 -0.018882
			-0.001530 -0.011803 -0.017422
			-0.001625 -0.011354 -0.017125
			-0.001497 -0.010810 -0.017043
			-0.003200 -0.009359 -0.018359
			-0.004619 -0.009016 -0.018514
			-0.004327 -0.011609 -0.018381
			-0.000298 -0.008124 -0.019813
			-0.002818 -0.007949 -0.020533
			-0.005159 -0.008289 -0.018862
			-0.004769 -0.010492 -0.018679
			-0.001288 -0.008091 -0.019584
		</DataArray>
	</Points>
			<Polys>
				<DataArray type="Int32" Name="connectivity" format="ascii">
					0 1 2 
					0 3 4 
					2 5 0 
					6 7 0 
					4 6 0 
					7 8 0 
					8 1 0 
					5 3 0 
					1 9 10 
					11 2 1 
					8 12 1 
					1 12 13 
					1 13 9 
					14 11 1 
					1 15 14 
					10 15 1 
					2 16 5 
					11 17 2 
					2 17 18 
					19 16 2 
					20 2 18 
					2 20 19 
					5 21 3 
					3 21 22 
					4 3 23 
					3 22 23 
					24 25 4 
					6 4 25 
					4 26 24 
					4 23 26 
					27 5 28 
					28 5 16 
					27 21 5 
					7 6 29 
					6 25 29 
					12 7 29 
					8 7 12 
					30 31 9 
					30 9 13 
					32 10 9 
					9 31 32 
					10 32 33 
					10 33 34 
					34 15 10 
					35 11 36 
					35 17 11 
					14 36 11 
					37 13 12 
					37 12 29 
					30 13 37 
					14 15 36 
					15 38 36 
					15 39 40 
					40 38 15 
					34 41 15 
					42 15 41 
					42 39 15 
					19 43 16 
					16 43 28 
					17 35 18 
					44 18 35 
					20 18 44 
					19 45 43 
					20 45 19 
					20 44 45 
					46 21 27 
					21 46 22 
					23 22 47 
					46 47 22 
					23 47 48 
					23 48 26 
					49 25 24 
					50 24 51 
					49 24 50 
					51 24 52 
					26 52 24 
					29 25 53 
					49 53 25 
					26 48 54 
					26 54 52 
					55 27 56 
					27 57 56 
					27 28 57 
					46 27 55 
					58 28 43 
					28 58 57 
					59 29 50 
					53 50 29 
					37 29 59 
					59 30 37 
					59 60 30 
					60 31 30 
					32 31 61 
					62 61 31 
					60 62 31 
					33 32 63 
					61 63 32 
					64 33 65 
					65 33 66 
					63 66 33 
					64 34 33 
					34 64 67 
					34 67 41 
					44 35 36 
					68 44 36 
					68 36 69 
					36 70 69 
					70 36 38 
					71 72 38 
					72 70 38 
					71 38 40 
					39 73 40 
					42 74 39 
					74 73 39 
					40 73 71 
					41 67 75 
					76 41 77 
					41 75 77 
					42 41 76 
					42 76 74 
					43 78 58 
					78 43 45 
					68 45 44 
					78 45 68 
					79 46 55 
					46 79 47 
					48 47 80 
					47 79 80 
					54 48 81 
					48 80 81 
					53 49 50 
					82 60 50 
					83 82 50 
					50 51 83 
					59 50 60 
					51 52 83 
					83 52 84 
					52 54 84 
					54 81 85 
					54 85 84 
					55 56 79 
					79 56 86 
					56 87 86 
					57 87 56 
					88 57 58 
					57 88 89 
					57 89 87 
					69 58 68 
					58 78 68 
					58 69 88 
					62 60 82 
					90 61 91 
					92 91 61 
					61 62 93 
					61 93 92 
					61 90 63 
					62 83 94 
					62 94 95 
					83 62 82 
					96 93 62 
					95 96 62 
					63 97 66 
					90 98 63 
					98 97 63 
					65 99 64 
					99 100 64 
					67 64 101 
					64 100 101 
					99 65 102 
					103 102 65 
					103 65 66 
					103 66 97 
					67 101 104 
					67 104 75 
					69 70 89 
					88 69 89 
					89 70 105 
					105 70 106 
					72 106 70 
					71 73 107 
					71 107 106 
					72 71 106 
					108 109 73 
					73 109 107 
					73 74 108 
					110 74 76 
					108 74 110 
					77 75 111 
					75 112 92 
					92 111 75 
					104 112 75 
					76 113 110 
					114 113 76 
					115 114 76 
					77 115 76 
					116 115 77 
					116 77 111 
					86 117 79 
					79 117 80 
					81 80 95 
					118 119 80 
					80 119 95 
					117 118 80 
					81 95 85 
					85 94 83 
					84 85 83 
					85 95 120 
					120 94 85 
					86 87 117 
					87 89 105 
					117 87 105 
					91 98 90 
					91 92 112 
					121 91 112 
					91 121 98 
					111 92 93 
					122 93 123 
					93 96 123 
					111 93 122 
					94 120 95 
					95 119 124 
					95 124 125 
					95 126 96 
					125 126 95 
					127 123 96 
					127 96 126 
					103 97 128 
					97 129 128 
					97 98 130 
					97 130 129 
					131 130 98 
					131 98 132 
					121 133 98 
					133 132 98 
					99 102 134 
					100 99 134 
					134 135 100 
					135 136 100 
					137 101 100 
					137 100 136 
					101 137 138 
					138 104 101 
					128 139 102 
					140 134 102 
					128 102 103 
					140 102 139 
					104 138 112 
					105 106 141 
					105 141 117 
					142 141 106 
					107 143 106 
					142 106 143 
					143 107 109 
					144 109 108 
					108 110 144 
					143 109 144 
					145 110 146 
					146 110 147 
					110 113 147 
					144 110 145 
					122 116 111 
					112 148 121 
					138 148 112 
					113 149 150 
					150 147 113 