<?xml version="1.0"?>
<VTKFile type="PolyData" version="0.1" byte_order="LittleEndian" compressor="vtkZLibDataCompressor">
	<PolyData>
		<Piece NumberOfPoints="116" NumberOfVerts="0" NumberOfLines="0" NumberOfStrips="0" NumberOfPolys="227">
		<PointData Normals="Normals">
		<DataArray type="Float32" Name="Normals" NumberOfComponents="3" format="ascii">
			-0.809320 -0.238909  0.536585
			-0.698862 -0.327651  0.635796
			-0.461882 -0.015337  0.886809
			-0.864227 -0.501898  0.034777
			-0.899012 -0.435861  0.042461
			-0.374102  0.154213  0.914476
			-0.724233 -0.349426  0.594465
			 0.033910 -0.073758  0.996699
			-0.467466 -0.605505  0.644080
			-0.738679 -0.663024  0.121462
			-0.050724  0.391325  0.918854
			-0.828253 -0.445658  0.339684
			-0.775587 -0.439181 -0.453415
			-0.796319 -0.424827 -0.430580
			-0.878982 -0.402114 -0.256312
			-0.699653 -0.713916 -0.028459
			-0.365067 -0.211181  0.906713
			 0.465746  0.138332  0.874039
			 0.283096  0.751195  0.596291
			-0.178478  0.786007  0.591894
			-0.074861 -0.722201  0.687620
			 0.339383 -0.543074  0.768043
			 0.457283 -0.254112  0.852244
			 0.616315  0.577770  0.535105
			 0.886566  0.107896  0.449843
			-0.199934 -0.977172  0.071843
			 0.287343  0.919219  0.269204
			-0.829728 -0.446243 -0.335289
			-0.356471 -0.269595  0.894565
			-0.272754 -0.421920  0.864632
			-0.810591 -0.492266  0.317202
			-0.344243 -0.319896 -0.882702
			-0.458094 -0.223168 -0.860434
			-0.242852  0.130784 -0.961207
			-0.720742 -0.583594 -0.374096
			-0.282729 -0.958624  0.033237
			 0.013550 -0.998536  0.052360
			 0.308714 -0.039315  0.950342
			 0.727340  0.159642  0.667451
			 0.886534  0.318221  0.335846
			 0.642467  0.764119  0.057958
			 0.405896 -0.884583  0.229696
			 0.866088 -0.321690  0.382633
			 0.782844 -0.595087  0.181735
			 0.789773  0.606025 -0.094831
			 0.990144  0.105930 -0.091614
			 0.566149 -0.817447 -0.106091
			 0.519191  0.837594 -0.169934
			-0.960285 -0.242449  0.138098
			-0.938663 -0.269628 -0.214971
			-0.763442 -0.244641 -0.597751
			 0.404533 -0.245849  0.880858
			-0.753901 -0.342605  0.560585
			-0.142540 -0.286494  0.947419
			 0.128880 -0.220456 -0.966845
			 0.418677  0.007180 -0.908107
			-0.048146 -0.207868 -0.976971
			 0.577840  0.213742 -0.787665
			-0.334233 -0.041368 -0.941582
			-0.118283  0.182309 -0.976101
			 0.108781 -0.410587 -0.905309
			-0.377503 -0.426020 -0.822191
			 0.065909  0.116074 -0.991051
			 0.385096 -0.006108 -0.922856
			 0.284857  0.641372 -0.712389
			 0.176593  0.763110 -0.621674
			-0.246358 -0.795002 -0.554328
			 0.455969 -0.880518 -0.129542
			 0.496729 -0.867674 -0.020055
			 0.897084  0.086850  0.433240
			 0.928001  0.236481 -0.287909
			 0.907495  0.407269 -0.102881
			 0.672454  0.739022 -0.040645
			 0.917516 -0.385878 -0.096245
			 0.826963  0.552867 -0.102325
			 0.997893 -0.064866 -0.001514
			 0.807667 -0.589149  0.024014
			-0.948733  0.316032 -0.005519
			-0.892507  0.444777  0.074863
			-0.833089  0.272971  0.481092
			-0.564674  0.062233 -0.822964
			-0.920690  0.207138 -0.330792
			 0.412730 -0.104316  0.904860
			 0.784656 -0.069987  0.615968
			-0.640025 -0.062898  0.765775
			 0.287968  0.150182  0.945790
			-0.162078  0.107838  0.980868
			 0.565743 -0.018781 -0.824368
			-0.113815  0.313167 -0.942853
			 0.342373  0.134001 -0.929960
			 0.708991  0.630471 -0.315971
			 0.573612  0.535765 -0.619617
			 0.755902 -0.417291 -0.504459
			 0.891721  0.051780 -0.449614
			 0.431922  0.882167 -0.187684
			 0.672869  0.736852 -0.065550
			 0.916695 -0.394225  0.065246
			 0.839233  0.510652  0.186877
			 0.857716  0.182212 -0.480752
			 0.962816  0.269658 -0.016440
			-0.636468  0.716055 -0.286659
			-0.497802  0.866154  0.044395
			-0.667940  0.742848  0.045095
			-0.423566  0.880035  0.214779
			-0.319105  0.497480  0.806651
			 0.673121  0.148125  0.724546
			 0.211154  0.457887  0.863570
			 0.527582  0.471549  0.706611
			-0.242075  0.885042 -0.397618
			 0.222944  0.534528 -0.815215
			 0.550747  0.624880 -0.553357
			 0.049501  0.998579  0.019719
			 0.454647  0.848830 -0.269786
			 0.138173  0.852646  0.503887
			-0.172201  0.983739 -0.051034
			 0.177345  0.865098 -0.469206
		</DataArray>
	</PointData>
	<Points>
		<DataArray type="Float32" NumberOfComponents="3" format="ascii">
			 0.017906 -0.116291  0.023189
			 0.018744 -0.118557  0.023689
			 0.019025 -0.115168  0.024391
			 0.012101 -0.108174  0.019542
			 0.017361 -0.116155  0.021333
			 0.018914 -0.114444  0.024175
			 0.015407 -0.112276  0.022157
			 0.024450 -0.116713  0.025397
			 0.020801 -0.121051  0.023786
			 0.019680 -0.120809  0.022046
			 0.021551 -0.114310  0.025027
			 0.009299 -0.103015  0.020387
			 0.011666 -0.106005  0.017303
			 0.017876 -0.116064  0.017009
			 0.018679 -0.118737  0.017635
			 0.019617 -0.120549  0.019606
			 0.014782 -0.106729  0.024178
			 0.016705 -0.106226  0.024034
			 0.020694 -0.113519  0.023500
			 0.020570 -0.113892  0.024617
			 0.021621 -0.121356  0.023897
			 0.024092 -0.120310  0.024467
			 0.024655 -0.118599  0.024992
			 0.024897 -0.115115  0.024564
			 0.025831 -0.117304  0.024291
			 0.021316 -0.121765  0.022257
			 0.022622 -0.113608  0.024002
			 0.004746 -0.092919  0.016314
			 0.012389 -0.101230  0.024483
			 0.009171 -0.092493  0.026386
			 0.003927 -0.091470  0.022659
			 0.007657 -0.093507  0.014293
			 0.020290 -0.118962  0.015213
			 0.018721 -0.114695  0.015706
			 0.020429 -0.121016  0.016084
			 0.021733 -0.122173  0.017164
			 0.021425 -0.121576  0.019555
			 0.012139 -0.095072  0.025330
			 0.014007 -0.097588  0.024223
			 0.015408 -0.100538  0.023160
			 0.021326 -0.113245  0.021680
			 0.024027 -0.121171  0.023137
			 0.025754 -0.118301  0.024098
			 0.024862 -0.120272  0.023528
			 0.025150 -0.115529  0.021985
			 0.026020 -0.117595  0.021987
			 0.023845 -0.121127  0.020449
			 0.023183 -0.113915  0.022029
			 0.002022 -0.087642  0.021912
			 0.002435 -0.087910  0.015800
			 0.002907 -0.086327  0.013814
			 0.010243 -0.092381  0.026277
			 0.003498 -0.088867  0.025202
			 0.007508 -0.087590  0.028663
			 0.009280 -0.090776  0.013130
			 0.010926 -0.093198  0.013722
			 0.007680 -0.088747  0.012306
			 0.017625 -0.108646  0.015640
			 0.021436 -0.116457  0.014316
			 0.022187 -0.116196  0.014120
			 0.024476 -0.119832  0.014173
			 0.021608 -0.120980  0.015012
			 0.024170 -0.117361  0.013868
			 0.024632 -0.118139  0.013874
			 0.020313 -0.113909  0.015894
			 0.022073 -0.114577  0.014889
			 0.021762 -0.122009  0.015819
			 0.023740 -0.121799  0.015567
			 0.023708 -0.121013  0.019659
			 0.012527 -0.089837  0.024651
			 0.012037 -0.092294  0.016001
			 0.016675 -0.103003  0.020196
			 0.021250 -0.113472  0.019610
			 0.025852 -0.118443  0.021767
			 0.025102 -0.116787  0.019481
			 0.025384 -0.117737  0.019498
			 0.024450 -0.120250  0.019627
			 0.001732 -0.085580  0.018894
			 0.001773 -0.085514  0.021364
			 0.003939 -0.083609  0.026719
			 0.004139 -0.083952  0.012308
			 0.002306 -0.084115  0.014897
			 0.009959 -0.087132  0.028303
			 0.010824 -0.087269  0.027563
			 0.004339 -0.085198  0.027308
			 0.008160 -0.085052  0.028649
			 0.006752 -0.085267  0.028873
			 0.010463 -0.091578  0.013600
			 0.004899 -0.083350  0.012219
			 0.009008 -0.085208  0.012403
			 0.021191 -0.113433  0.017330
			 0.024177 -0.115908  0.014576
			 0.025054 -0.120213  0.014895
			 0.025471 -0.118091  0.014563
			 0.022644 -0.114213  0.017013
			 0.024489 -0.115425  0.016836
			 0.025561 -0.119873  0.017278
			 0.011648 -0.081844  0.024413
			 0.010763 -0.084564  0.013566
			 0.025895 -0.117692  0.017096
			 0.003591 -0.082520  0.013459
			 0.007107 -0.082246  0.018880
			 0.004184 -0.082452  0.025132
			 0.005844 -0.081537  0.026462
			 0.006074 -0.082570  0.027958
			 0.010584 -0.085984  0.027829
			 0.008600 -0.082662  0.027847
			 0.010419 -0.082395  0.026727
			 0.005202 -0.081789  0.013285
			 0.007971 -0.082561  0.012860
			 0.009758 -0.082599  0.013867
			 0.010138 -0.080530  0.023351
			 0.008453 -0.081388  0.014870
			 0.007969 -0.081063  0.026443
			 0.007688 -0.080981  0.015700
			 0.007163 -0.081416  0.013884
		</DataArray>
	</Points>
			<Polys>
				<DataArray type="Int32" Name="connectivity" format="ascii">
					0 1 2 
					3 4 0 
					2 5 0 
					6 0 5 
					1 0 4 
					0 6 3 
					7 1 8 
					2 1 7 
					9 8 1 
					1 4 9 
					10 2 7 
					2 10 5 
					3 6 11 
					3 11 12 
					12 13 3 
					4 3 13 
					4 13 14 
					4 15 9 
					14 15 4 
					5 16 6 
					16 5 17 
					18 17 5 
					19 18 5 
					10 19 5 
					11 6 16 
					8 20 7 
					20 21 7 
					21 22 7 
					10 7 23 
					7 24 23 
					24 7 22 
					20 8 25 
					8 9 25 
					25 9 15 
					26 19 10 
					23 26 10 
					11 27 12 
					28 11 16 
					11 28 29 
					11 29 30 
					27 11 30 
					31 13 12 
					12 27 31 
					13 32 14 
					33 13 31 
					34 14 32 
					34 15 14 
					35 15 34 
					25 15 36 
					36 15 35 
					16 37 28 
					17 37 16 
					17 38 37 
					18 39 17 
					39 38 17 
					18 19 26 
					18 40 39 
					18 26 40 
					41 20 25 
					41 21 20 
					21 42 22 
					21 41 43 
					42 21 43 
					22 42 24 
					23 24 44 
					26 23 44 
					45 44 24 
					24 42 45 
					25 46 41 
					36 46 25 
					26 44 47 
					47 40 26 
					48 27 30 
					49 27 48 
					27 49 50 
					31 27 50 
					29 28 37 
					37 51 29 
					29 52 30 
					51 53 29 
					29 53 52 
					52 48 30 
					31 54 55 
					31 50 56 
					56 54 31 
					31 57 33 
					55 57 31 
					32 58 59 
					60 61 32 
					32 61 34 
					62 32 59 
					63 32 62 
					63 60 32 
					32 33 58 
					57 64 33 
					65 33 64 
					59 58 33 
					65 59 33 
					34 66 35 
					61 66 34 
					66 67 35 
					67 36 35 
					68 36 67 
					68 46 36 
					69 51 37 
					37 38 69 
					39 69 38 
					70 69 39 
					71 70 39 
					39 40 71 
					71 40 72 
					40 47 72 
					43 41 46 
					42 43 73 
					73 45 42 
					73 43 46 
					44 74 47 
					74 44 45 
					74 45 75 
					45 73 75 
					46 76 73 
					46 68 76 
					72 47 74 
					77 49 48 
					78 77 48 
					48 79 78 
					79 48 52 
					50 49 77 
					50 80 56 
					77 81 50 
					80 50 81 
					53 51 82 
					83 51 69 
					82 51 83 
					79 52 84 
					52 53 84 
					85 53 82 
					86 84 53 
					86 53 85 
					87 55 54 
					87 54 56 
					57 55 70 
					70 55 87 
					88 56 80 
					89 87 56 
					88 89 56 
					71 90 57 
					64 57 90 
					70 71 57 
					62 59 91 
					65 91 59 
					60 67 66 
					61 60 66 
					63 92 60 
					92 67 60 
					91 63 62 
					63 93 92 
					91 93 63 
					90 94 64 
					65 64 94 
					91 65 95 
					65 94 95 
					68 67 76 
					67 96 76 
					92 96 67 
					69 97 83 
					70 98 69 
					98 97 69 
					98 70 87 
					90 71 72 
					72 74 95 
					94 72 95 
					94 90 72 
					76 75 73 
					95 74 99 
					75 99 74 
					75 76 96 
					75 96 99 
					100 81 77 
					78 101 77 
					100 77 101 
					78 102 101 
					102 78 79 
					79 103 102 
					104 103 79 
					104 79 84 
					100 80 81 
					80 100 88 
					83 105 82 
					85 82 105 
					105 83 97 
					84 86 104 
					85 106 86 
					105 107 85 
					106 85 107 
					106 104 86 
					89 98 87 
					88 100 108 
					89 88 109 
					88 108 109 
					109 110 89 
					98 89 110 
					93 91 99 
					91 95 99 
					92 93 96 
					96 93 99 
					111 97 112 
					110 112 97 
					110 97 98 
					107 105 97 
					107 97 113 
					111 113 97 
					108 100 101 
					111 101 103 
					101 102 103 
					114 108 101 
					101 111 114 
					113 103 104 
					103 113 111 
					106 113 104 
					106 107 113 
					115 109 108 
					108 114 115 
					110 109 115 
					110 115 112 
					111 112 114 
					112 115 114 
				</DataArray>
				<DataArray type="Int32" Name="offsets" format="ascii">
					3 6 9 12 15 18 21 24 27 30 33 36 39 42 45 48 51 54 57 60 63 66 69 72 75 78 81 84 87 90 93 96 99 102 105 108 111 114 117 120 123 126 129 132 135 138 141 144 147 150 153 156 159 162 165 168 171 174 177 180 183 186 189 192 195 198 201 204 207 210 213 216 219 222 225 228 231 234 237 240 243 246 249 252 255 258 261 264 267 270 273 276 279 282 285 288 291 294 297 300 303 306 309 312 315 318 321 324 327 330 333 336 339 342 345 348 351 354 357 360 363 366 369 372 375 378 381 384 387 390 393 396 399 402 405 408 411 414 417 420 423 426 429 432 435 438 441 444 447 450 453 456 459 462 465 468 471 474 477 480 483 486 489 492 495 498 501 504 507 510 513 516 519 522 525 528 531 534 537 540 543 546 549 552 555 558 561 564 567 570 573 576 579 582 585 588 591 594 597 600 603 606 609 612 615 618 621 624 627 630 633 636 639 642 645 648 651 654 657 660 663 666 669 672 675 678 681 
				</DataArray>
			</Polys>
		</Piece>
	</PolyData>
</VTKFile>
