<?xml version="1.0"?>
<VTKFile type="PolyData" version="0.1" byte_order="LittleEndian" compressor="vtkZLibDataCompressor">
	<PolyData>
		<Piece NumberOfPoints="347" NumberOfVerts="0" NumberOfLines="0" NumberOfStrips="0" NumberOfPolys="694">
		<PointData Normals="Normals">
		<DataArray type="Float32" Name="Normals" NumberOfComponents="3" format="ascii">
			-0.314732  0.039203 -0.948371
			-0.182639  0.175511 -0.967388
			-0.185571  0.142863 -0.972190
			-0.443798 -0.075025 -0.892981
			 0.112406 -0.036669 -0.992985
			 0.262811  0.113409 -0.958159
			 0.487737 -0.055264 -0.871240
			 0.154745  0.809542 -0.566300
			 0.485940  0.534529 -0.691478
			 0.626704  0.481385 -0.612789
			 0.093728  0.536014 -0.838990
			 0.295998  0.132283 -0.945985
			 0.543147  0.238249 -0.805127
			 0.160882 -0.089356 -0.982920
			-0.081749 -0.375409 -0.923247
			-0.492423 -0.266671 -0.828496
			 0.034700 -0.183254 -0.982453
			 0.539729 -0.048552 -0.840437
			 0.087046 -0.004682 -0.996193
			-0.023579  0.415023 -0.909505
			-0.311760 -0.217011 -0.925047
			 0.084696  0.018428 -0.996236
			 0.039064  0.394444 -0.918089
			 0.014633 -0.116798 -0.993048
			 0.499806  0.861318 -0.091247
			 0.668718  0.738279 -0.088090
			 0.417870  0.907136  0.049891
			 0.162520  0.446948 -0.879673
			 0.811223  0.335032 -0.479240
			 0.886493  0.457362 -0.070356
			 0.855334  0.454223  0.249168
			 0.919899  0.329142 -0.213193
			 0.668545 -0.132240 -0.731820
			 0.879828  0.067442 -0.470483
			 0.560080 -0.404635 -0.722898
			 0.197956 -0.663650 -0.721375
			-0.454315 -0.116275 -0.883220
			-0.619676 -0.567142 -0.542543
			-0.339509 -0.367769 -0.865725
			-0.126678 -0.357811 -0.925161
			-0.077224 -0.723792 -0.685683
			-0.597655 -0.051714 -0.800084
			-0.622380  0.147995 -0.768597
			-0.562284 -0.138974 -0.815183
			 0.693191  0.642080  0.327444
			 0.029892  0.230550 -0.972601
			 0.770277  0.226944 -0.595961
			 0.968848  0.161288  0.187935
			 0.960269  0.254703  0.114062
			 0.881536  0.304739  0.360596
			 0.948206  0.119597  0.294281
			 0.984478  0.141569 -0.103739
			 0.932533 -0.319195 -0.168812
			 0.601311 -0.763810 -0.234562
			 0.072774 -0.846219 -0.527842
			-0.837402 -0.098275 -0.537679
			-0.746494 -0.267284 -0.609348
			-0.054358 -0.932261 -0.357680
			-0.280159 -0.951318 -0.128473
			-0.637731 -0.728771 -0.249383
			-0.883447 -0.395300 -0.251513
			-0.755538  0.001551 -0.655103
			 0.722220  0.143094 -0.676700
			-0.018022  0.146597 -0.989032
			-0.116384  0.154633 -0.981093
			-0.805014  0.005352 -0.593232
			 0.509352  0.109022  0.853624
			 0.754037  0.247531  0.608405
			 0.865542 -0.041316  0.499130
			 0.986889  0.092940 -0.131958
			 0.549196  0.005123  0.835678
			 0.924121  0.078519  0.373946
			 0.827893 -0.152251  0.539826
			 0.820176 -0.040696  0.570662
			 0.830006  0.384710  0.403841
			 0.863813  0.460677  0.203971
			 0.917473 -0.265284  0.296424
			 0.776792 -0.617005  0.126094
			 0.475682 -0.878959  0.034033
			-0.912571 -0.285820 -0.292440
			-0.878635 -0.175439 -0.444096
			-0.983214 -0.073205 -0.167126
			 0.180766 -0.979533  0.088532
			-0.612910 -0.789285  0.037024
			 0.202612 -0.931647  0.301631
			-0.329056 -0.888176  0.320728
			-0.606117 -0.536799  0.586915
			-0.876849 -0.372201  0.304306
			 0.124828  0.063681 -0.990133
			 0.788061  0.084564 -0.609762
			-0.166768  0.098385 -0.981075
			-0.348248  0.104742 -0.931532
			-0.126926 -0.023583 -0.991632
			-0.576632 -0.006488 -0.816978
			-0.977506 -0.116572  0.175765
			-0.977106 -0.095595 -0.190067
			-0.979496 -0.101887 -0.173802
			-0.013898  0.151684  0.988331
			 0.272974  0.018981  0.961834
			 0.410259  0.415369  0.811884
			 0.953630 -0.088670  0.287623
			 0.738320 -0.182250  0.649361
			 0.559487 -0.124978  0.819362
			 0.981192 -0.085464 -0.173082
			 0.648741  0.101786 -0.754171
			-0.081928 -0.069208  0.994232
			 0.680110 -0.143211  0.718986
			 0.553425 -0.033119  0.832240
			 0.732155 -0.437924  0.521701
			 0.489586 -0.358660  0.794776
			 0.383963 -0.583217  0.715843
			 0.142230  0.182765  0.972814
			 0.610362 -0.709006  0.353226
			 0.494430 -0.857016  0.145128
			-0.845941 -0.515288  0.137342
			-0.833662 -0.544734 -0.090951
			-0.930980 -0.028608 -0.363948
			-0.896169 -0.268303 -0.353403
			-0.996795  0.051373  0.061332
			-0.750518  0.013619  0.660709
			-0.050967 -0.812499  0.580730
			-0.286994 -0.524923  0.801305
			-0.148481 -0.360769  0.920760
			-0.176889 -0.214862  0.960492
			-0.470124 -0.450481  0.758980
			-0.069041  0.003617 -0.997607
			 0.202757  0.014361 -0.979124
			 0.174847 -0.098184 -0.979688
			-0.130508 -0.217419 -0.967314
			-0.637237 -0.132908 -0.759121
			-0.589060 -0.097768  0.802153
			-0.811832 -0.154483  0.563084
			-0.946766 -0.242277  0.211983
			-0.735630 -0.267201  0.622456
			-0.984128 -0.116970  0.133458
			-0.917564 -0.151474 -0.367603
			-0.824608  0.213540  0.523853
			 0.042154 -0.095190  0.994566
			-0.420724  0.107154  0.900838
			-0.228025 -0.175836  0.957646
			-0.171363  0.060925  0.983322
			 0.251663 -0.230451  0.939978
			 0.967861 -0.247251  0.045953
			 0.706156 -0.228152  0.670292
			 0.437588 -0.236589  0.867492
			-0.046956 -0.205524  0.977525
			 0.612763 -0.114175 -0.781975
			-0.075613 -0.166073  0.983210
			-0.326711 -0.016980  0.944972
			-0.352589 -0.289349  0.889921
			-0.457707 -0.594803  0.660843
			-0.778887 -0.530206  0.334987
			-0.997241 -0.067717 -0.030416
			-0.937213 -0.346348  0.040931
			 0.055682 -0.414574  0.908311
			-0.316840 -0.235065  0.918889
			 0.328256 -0.197966 -0.923611
			 0.501226 -0.128635 -0.855702
			 0.035137 -0.242606 -0.969488
			 0.335967 -0.109000 -0.935545
			-0.655454 -0.224804 -0.721001
			-0.807273 -0.349436  0.475609
			-0.571307 -0.541920  0.616386
			 0.001030 -0.448669  0.893698
			-0.977553 -0.188045 -0.095022
			-0.974500 -0.137114  0.177623
			-0.794591 -0.101690  0.598569
			-0.717461 -0.067607  0.693310
			-0.841912 -0.293002 -0.453139
			-0.925128 -0.185750 -0.331113
			-0.883881 -0.322416 -0.338826
			-0.855265  0.041667  0.516514
			-0.033508 -0.461531  0.886491
			-0.622360 -0.263989  0.736871
			-0.724352 -0.130537  0.676959
			 0.865383 -0.203786 -0.457804
			 0.871832 -0.255323  0.417994
			 0.957491 -0.217844 -0.189090
			 0.532243 -0.323978  0.782148
			 0.281513 -0.224470  0.932933
			 0.022014 -0.118060  0.992762
			-0.289788 -0.548076  0.784625
			-0.713791 -0.426790  0.555296
			 0.370378 -0.251732 -0.894120
			 0.322868 -0.009902 -0.946392
			-0.190394 -0.356952 -0.914514
			-0.678423 -0.392251 -0.621194
			 0.694656 -0.118100 -0.709581
			-0.892554 -0.260731 -0.367923
			-0.118077 -0.338440  0.933550
			-0.970033 -0.242354  0.017343
			-0.994995 -0.053148 -0.084619
			-0.957318 -0.156892 -0.242749
			-0.504943 -0.213922  0.836223
			-0.864179 -0.367799  0.343393
			-0.289387  0.063799  0.955084
			-0.133688  0.144348  0.980455
			-0.819450 -0.305144 -0.485168
			-0.861367 -0.264106 -0.433930
			 0.975961 -0.126160 -0.177720
			 0.633937 -0.212312  0.743672
			 0.573122 -0.079067  0.815647
			 0.903790  0.070004  0.422212
			 0.999204 -0.039590  0.004974
			-0.056273 -0.156703  0.986041
			 0.306899 -0.110001  0.945364
			-0.078773  0.212358  0.974012
			-0.295506  0.003343  0.955335
			-0.220212 -0.284031 -0.933184
			 0.280037 -0.289068 -0.915434
			 0.448451 -0.079720 -0.890245
			 0.541624  0.319079 -0.777709
			 0.324815  0.372716 -0.869240
			 0.345788  0.251860 -0.903879
			 0.659308  0.098131 -0.745442
			-0.786147 -0.266043 -0.557848
			 0.981284 -0.181772 -0.063574
			 0.810418  0.058228 -0.582951
			-0.895394 -0.140403 -0.422561
			-0.929632 -0.077890 -0.360163
			-0.884055  0.025705 -0.466675
			-0.838326 -0.276575  0.469804
			-0.932805 -0.046456  0.357375
			-0.947169  0.122857  0.296273
			-0.891624  0.115247 -0.437863
			-0.949395  0.308904  0.056803
			 0.195937  0.091021  0.976383
			-0.312239 -0.260969  0.913456
			 0.023709  0.288978  0.957042
			 0.965973 -0.201612  0.162013
			 0.991406 -0.079831  0.103642
			 0.284119 -0.137435  0.948888
			 0.278108  0.135624  0.950927
			 0.146713  0.169121  0.974614
			 0.222287  0.093216  0.970515
			 0.953987 -0.109480  0.279146
			 0.948036 -0.113413  0.297263
			 0.836681 -0.134863  0.530826
			 0.196409  0.025152  0.980200
			-0.099503  0.022687  0.994779
			-0.354269  0.014876  0.935025
			-0.250798  0.055429  0.966451
			-0.605346 -0.046123 -0.794625
			 0.214219 -0.061978 -0.974817
			 0.411169 -0.208372 -0.887424
			 0.308636  0.827032 -0.469853
			 0.220094  0.299889 -0.928238
			 0.069548  0.699967 -0.710781
			 0.289867  0.888078 -0.356783
			-0.933922  0.148262 -0.325282
			 0.955262 -0.166865  0.244193
			 0.721652  0.395002 -0.568500
			 0.994696 -0.085030 -0.057874
			-0.937530  0.038308 -0.345789
			-0.919018  0.263870 -0.292880
			-0.719974  0.256726 -0.644771
			-0.271525  0.076264  0.959405
			-0.310821  0.026981  0.950086
			-0.674598  0.369556  0.639020
			-0.673732  0.666283 -0.319612
			-0.630031  0.775279 -0.044761
			-0.735898  0.577835 -0.352931
			-0.549829  0.360228 -0.753607
			 0.421171  0.206123  0.883249
			 0.526725  0.044956  0.848846
			 0.331212  0.062535  0.941482
			-0.468371 -0.040376  0.882609
			-0.144129  0.107106  0.983745
			-0.081589  0.170918  0.981901
			 0.134549  0.252200  0.958275
			-0.080322  0.188755  0.978734
			 0.953367  0.257954  0.156688
			 0.762369  0.639229  0.100898
			 0.519030 -0.238369  0.820846
			 0.757999  0.022828  0.651856
			-0.408478 -0.063777  0.910538
			-0.350377  0.186146  0.917925
			-0.175041  0.159198  0.971605
			-0.570951  0.234714  0.786718
			-0.502892  0.071521  0.861385
			-0.652305  0.237342 -0.719839
			-0.028934  0.987069 -0.157666
			-0.075318  0.984617  0.157662
			-0.703381  0.662327 -0.258028
			 0.654384  0.706882  0.268516
			 0.020626  0.980828  0.193779
			 0.199490  0.894275  0.400595
			-0.856302  0.468443 -0.217506
			-0.802758  0.595525  0.030488
			-0.631958  0.477115 -0.610730
			 0.256497  0.012112  0.966469
			-0.227376 -0.068714  0.971380
			-0.450005  0.797493  0.401872
			-0.176946  0.984070 -0.017229
			-0.318428  0.882816 -0.345311
			-0.195269  0.909241 -0.367628
			-0.441131  0.727952 -0.524871
			-0.484778  0.485988 -0.727190
			 0.005642  0.023281  0.999713
			 0.573089  0.103840  0.812887
			 0.449126  0.296308  0.842904
			 0.786840  0.308157  0.534717
			-0.277747  0.135269  0.951083
			 0.484207  0.110119  0.867996
			 0.264051  0.934974 -0.236854
			 0.666623  0.737556  0.107823
			 0.058018  0.995111 -0.079931
			-0.106625  0.714422 -0.691544
			-0.166820 -0.135558  0.976624
			 0.313209  0.674982  0.668056
			 0.785376 -0.364260  0.500499
			-0.224010 -0.277195  0.934335
			-0.452287  0.061891  0.889722
			-0.541250  0.093976  0.835593
			 0.211664  0.974456 -0.075056
			-0.328083  0.923192 -0.200193
			 0.207770  0.936205 -0.283465
			 0.433493  0.891927 -0.128643
			 0.332022  0.887361 -0.319924
			-0.798746  0.467172 -0.379151
			 0.097039 -0.320786  0.942168
			-0.182401 -0.281337  0.942114
			-0.011703 -0.275224  0.961309
			-0.264251  0.254977  0.930139
			-0.162499  0.986671  0.008693
			 0.154736  0.940835 -0.301475
			 0.054499  0.929979 -0.363551
			 0.278530  0.825632 -0.490666
			-0.015657  0.847117 -0.531176
			-0.412703 -0.041727  0.909910
			 0.804353  0.014459  0.593976
			-0.291774 -0.021228  0.956252
			-0.066225  0.525488  0.848220
			 0.426120  0.902003  0.069371
			 0.309908  0.802732 -0.509488
			-0.303019 -0.159156  0.939600
			-0.071644 -0.069471  0.995008
			-0.041334 -0.408059  0.912019
			-0.022456 -0.333031  0.942649
			-0.147748 -0.300423  0.942293
			 0.143273  0.134899  0.980446
			-0.227670 -0.292502  0.928767
			-0.239598  0.095264  0.966187
			-0.118832  0.540413  0.832966
			 0.329167  0.933029  0.145278
			 0.069852  0.282232  0.956800
			 0.099823  0.022197  0.994757
		</DataArray>
	</PointData>
	<Points>
		<DataArray type="Float32" NumberOfComponents="3" format="ascii">
			 0.000917 -0.072875 -0.023777
			 0.003673 -0.069667 -0.024473
			 0.003089 -0.075595 -0.025802
			 0.002847 -0.077106 -0.025801
			 0.000118 -0.075276 -0.023157
			 0.001074 -0.069041 -0.023488
			 0.000011 -0.072944 -0.023952
			 0.002468 -0.066998 -0.023559
			 0.000324 -0.065546 -0.022808
			 0.004349 -0.068210 -0.024311
			 0.003809 -0.067526 -0.024117
			 0.005001 -0.072774 -0.025033
			 0.005302 -0.070344 -0.024514
			 0.003605 -0.077019 -0.025856
			 0.003136 -0.078277 -0.025551
			 0.002481 -0.078102 -0.025320
			-0.001101 -0.076739 -0.024612
			-0.000315 -0.074895 -0.024327
			-0.000335 -0.078741 -0.024341
			 0.000246 -0.078323 -0.023801
			 0.002015 -0.079011 -0.024851
			-0.001928 -0.067266 -0.025469
			-0.002426 -0.065460 -0.024978
			-0.001607 -0.070119 -0.024713
			 0.003728 -0.067047 -0.023426
			 0.001450 -0.066225 -0.021704
			 0.002271 -0.066805 -0.022605
			-0.003139 -0.063237 -0.023518
			-0.000852 -0.061194 -0.020580
			 0.000659 -0.064838 -0.020639
			 0.005123 -0.069145 -0.023051
			 0.005373 -0.069790 -0.023812
			 0.004328 -0.076590 -0.025638
			 0.005591 -0.071716 -0.024534
			 0.003829 -0.078086 -0.025461
			 0.003286 -0.079250 -0.024972
			-0.001901 -0.075482 -0.024365
			-0.001920 -0.078600 -0.022793
			 0.000411 -0.079347 -0.024495
			 0.001264 -0.079392 -0.024739
			 0.002097 -0.079729 -0.024210
			-0.002964 -0.066870 -0.025000
			-0.003787 -0.064699 -0.023580
			-0.002859 -0.070512 -0.024017
			 0.002095 -0.066975 -0.021582
			-0.004222 -0.058824 -0.022302
			-0.002657 -0.052636 -0.019893
			-0.002722 -0.049972 -0.017911
			-0.000547 -0.061082 -0.018880
			 0.001943 -0.071644 -0.017770
			 0.005967 -0.072119 -0.022221
			 0.005667 -0.070854 -0.023714
			 0.005623 -0.076833 -0.022275
			 0.003226 -0.079883 -0.023850
			 0.002742 -0.079960 -0.024174
			-0.004289 -0.068870 -0.023016
			-0.003661 -0.075944 -0.022842
			 0.001972 -0.080435 -0.023238
			-0.000406 -0.080422 -0.021908
			-0.002485 -0.079670 -0.019831
			-0.004085 -0.076943 -0.021280
			-0.005068 -0.063589 -0.022454
			-0.004244 -0.040965 -0.017247
			-0.005743 -0.040740 -0.017874
			-0.007171 -0.040952 -0.018030
			-0.008423 -0.047775 -0.018643
			-0.003563 -0.062951 -0.014505
			-0.001169 -0.063935 -0.015980
			-0.004097 -0.040756 -0.015526
			-0.004080 -0.041043 -0.016430
			-0.005457 -0.048326 -0.014539
			 0.001651 -0.072125 -0.014946
			 0.002505 -0.075951 -0.016942
			 0.004645 -0.076542 -0.019560
			 0.001009 -0.068802 -0.014708
			-0.000111 -0.067157 -0.015717
			 0.005443 -0.077076 -0.021313
			 0.004764 -0.078221 -0.021063
			 0.003090 -0.080234 -0.022695
			-0.005475 -0.073342 -0.017294
			-0.006456 -0.069828 -0.017637
			-0.007792 -0.061651 -0.015770
			 0.001772 -0.080404 -0.021275
			-0.002872 -0.079538 -0.018837
			 0.001707 -0.080254 -0.019403
			-0.002330 -0.079755 -0.018658
			-0.004516 -0.076851 -0.016460
			-0.004965 -0.076099 -0.016574
			-0.005289 -0.037817 -0.017814
			-0.004615 -0.037859 -0.017520
			-0.006141 -0.034320 -0.016885
			-0.005560 -0.034615 -0.017267
			-0.007983 -0.029691 -0.016665
			-0.009960 -0.029783 -0.015778
			-0.008392 -0.055232 -0.015097
			-0.009917 -0.042002 -0.015335
			-0.010835 -0.033026 -0.014137
			-0.005379 -0.064966 -0.013778
			-0.004256 -0.067848 -0.013646
			-0.000506 -0.067091 -0.014986
			-0.004183 -0.026248 -0.012478
			-0.004997 -0.030365 -0.012408
			-0.007109 -0.039137 -0.012621
			-0.004178 -0.029072 -0.014376
			-0.004996 -0.034573 -0.017304
			-0.007156 -0.055041 -0.014170
			 0.001770 -0.073453 -0.015233
			 0.001194 -0.071143 -0.014356
			 0.004431 -0.078001 -0.020001
			 0.001319 -0.076198 -0.015568
			 0.000621 -0.078572 -0.016745
			 0.000388 -0.069656 -0.013874
			 0.002819 -0.079849 -0.020135
			 0.002793 -0.079961 -0.021085
			-0.005507 -0.073891 -0.016099
			-0.006595 -0.072740 -0.015727
			-0.007372 -0.068064 -0.015994
			-0.007304 -0.071131 -0.015527
			-0.007475 -0.067036 -0.014787
			-0.007348 -0.064303 -0.014381
			-0.001720 -0.078990 -0.016924
			-0.002906 -0.078147 -0.016233
			-0.004473 -0.075412 -0.015943
			-0.003111 -0.075432 -0.016137
			-0.005160 -0.074096 -0.015480
			-0.006442 -0.028431 -0.016623
			-0.004777 -0.028447 -0.017016
			-0.007288 -0.023579 -0.017022
			-0.009010 -0.024030 -0.017097
			-0.009994 -0.024229 -0.016636
			-0.007856 -0.055168 -0.014535
			-0.009302 -0.048732 -0.014165
			-0.011256 -0.028225 -0.011265
			-0.010348 -0.033281 -0.012224
			-0.012136 -0.022831 -0.011119
			-0.012258 -0.019023 -0.013255
			-0.007310 -0.066362 -0.013891
			-0.005739 -0.068567 -0.013225
			-0.007064 -0.066775 -0.013550
			-0.002029 -0.072159 -0.014936
			-0.001133 -0.069658 -0.014438
			-0.003778 -0.070532 -0.014354
			-0.003183 -0.024017 -0.014989
			-0.004855 -0.022479 -0.009710
			-0.006204 -0.030386 -0.011169
			-0.008327 -0.033330 -0.011265
			-0.003912 -0.024080 -0.016840
			-0.000763 -0.073684 -0.014002
			-0.000650 -0.071632 -0.014067
			-0.000959 -0.075839 -0.014850
			-0.005975 -0.072925 -0.015190
			-0.006922 -0.072092 -0.015210
			-0.007849 -0.069670 -0.015146
			-0.007564 -0.070692 -0.015080
			-0.004364 -0.072347 -0.014897
			-0.001662 -0.073152 -0.015103
			-0.005524 -0.017615 -0.016966
			-0.007418 -0.019364 -0.017727
			-0.008560 -0.019308 -0.018443
			-0.003491 -0.019515 -0.016931
			-0.009390 -0.021873 -0.017676
			-0.011025 -0.027885 -0.009605
			-0.010782 -0.028690 -0.010262
			-0.009790 -0.028499 -0.009818
			-0.012538 -0.019209 -0.011912
			-0.012493 -0.019835 -0.011411
			-0.011638 -0.021218 -0.010009
			-0.011261 -0.025760 -0.009302
			-0.011987 -0.018210 -0.014078
			-0.011600 -0.018572 -0.014996
			-0.012574 -0.017860 -0.013358
			-0.007481 -0.067460 -0.013860
			-0.005119 -0.071620 -0.014116
			-0.007511 -0.070110 -0.014191
			-0.001145 -0.073075 -0.014519
			-0.002816 -0.019778 -0.015798
			-0.002604 -0.019635 -0.010852
			-0.001845 -0.018467 -0.014550
			-0.004474 -0.020310 -0.009117
			-0.006911 -0.024913 -0.009182
			-0.005073 -0.020478 -0.009027
			-0.006313 -0.072072 -0.014730
			-0.007402 -0.070707 -0.014579
			-0.007283 -0.016970 -0.018623
			-0.004335 -0.014824 -0.017440
			-0.009260 -0.018700 -0.018674
			-0.010009 -0.018814 -0.017786
			-0.001916 -0.015006 -0.016948
			-0.011652 -0.016815 -0.016334
			-0.010176 -0.027663 -0.009024
			-0.012624 -0.018763 -0.010963
			-0.013616 -0.013242 -0.011697
			-0.013251 -0.016123 -0.012803
			-0.011883 -0.019709 -0.009830
			-0.012286 -0.019408 -0.010405
			-0.010490 -0.023984 -0.008895
			-0.010821 -0.020651 -0.009574
			-0.012457 -0.017362 -0.014227
			-0.011808 -0.017508 -0.014846
			-0.001996 -0.017123 -0.015777
			-0.003648 -0.018968 -0.009411
			-0.003723 -0.017906 -0.009020
			-0.002268 -0.017270 -0.011015
			-0.001564 -0.017153 -0.014202
			-0.005079 -0.019151 -0.008691
			-0.004493 -0.019040 -0.008758
			-0.007348 -0.022503 -0.009180
			-0.006593 -0.020533 -0.009668
			-0.009708 -0.017859 -0.018804
			-0.008485 -0.016695 -0.019018
			-0.007103 -0.015550 -0.018715
			-0.006805 -0.011386 -0.017935
			-0.002892 -0.010270 -0.016664
			-0.002136 -0.011118 -0.016476
			-0.006984 -0.012576 -0.018388
			-0.010528 -0.017920 -0.017727
			-0.001767 -0.014863 -0.016304
			-0.001098 -0.011683 -0.016373
			-0.012649 -0.016087 -0.014225
			-0.011883 -0.015564 -0.016518
			-0.012401 -0.015037 -0.015090
			-0.013063 -0.017796 -0.009834
			-0.013603 -0.014563 -0.010574
			-0.013627 -0.012654 -0.010737
			-0.013161 -0.011365 -0.013407
			-0.013244 -0.010113 -0.011844
			-0.011069 -0.019417 -0.009712
			-0.012166 -0.018672 -0.009500
			-0.008387 -0.020533 -0.010024
			-0.001852 -0.014632 -0.015577
			-0.002000 -0.014517 -0.014811
			-0.004399 -0.018088 -0.008722
			-0.004138 -0.016726 -0.008682
			-0.004720 -0.016681 -0.008698
			-0.004659 -0.017235 -0.008567
			-0.002389 -0.014651 -0.011500
			-0.002906 -0.014162 -0.010366
			-0.003220 -0.014506 -0.009227
			-0.004395 -0.016161 -0.008788
			-0.005969 -0.017410 -0.008736
			-0.007073 -0.016560 -0.008800
			-0.007038 -0.020817 -0.009718
			-0.009991 -0.013151 -0.019577
			-0.008255 -0.012787 -0.020099
			-0.008326 -0.014904 -0.019633
			-0.007080 -0.010516 -0.017549
			-0.008528 -0.011176 -0.019895
			-0.008738 -0.010099 -0.019256
			-0.002688 -0.009537 -0.015877
			-0.011967 -0.012484 -0.016676
			-0.001354 -0.013250 -0.016084
			-0.001027 -0.010990 -0.016045
			-0.000757 -0.011974 -0.015827
			-0.012146 -0.013657 -0.015065
			-0.012272 -0.012334 -0.015039
			-0.012605 -0.011732 -0.014026
			-0.012387 -0.016749 -0.009392
			-0.012949 -0.012662 -0.010136
			-0.013233 -0.009579 -0.010242
			-0.012802 -0.009607 -0.011832
			-0.013200 -0.009118 -0.010914
			-0.013134 -0.010280 -0.012896
			-0.012812 -0.010775 -0.013488
			-0.010516 -0.017942 -0.010623
			-0.011486 -0.018341 -0.009614
			-0.011939 -0.017415 -0.009285
			-0.007670 -0.019559 -0.009850
			-0.009334 -0.018658 -0.010689
			-0.004991 -0.015647 -0.009009
			-0.005536 -0.015722 -0.008897
			-0.005347 -0.016570 -0.008546
			-0.002398 -0.012082 -0.010451
			-0.001001 -0.011378 -0.014813
			-0.003145 -0.013726 -0.009040
			-0.002570 -0.012154 -0.008977
			-0.004401 -0.013187 -0.008999
			-0.004919 -0.014815 -0.009019
			-0.006350 -0.015531 -0.009005
			-0.007547 -0.015807 -0.009488
			-0.008716 -0.016347 -0.010329
			-0.010457 -0.011596 -0.019061
			-0.009210 -0.009631 -0.018377
			-0.010273 -0.010039 -0.015831
			-0.011417 -0.010376 -0.017239
			-0.001179 -0.010513 -0.015737
			-0.008320 -0.010651 -0.014720
			-0.005777 -0.011238 -0.013121
			-0.011481 -0.011392 -0.015404
			-0.011099 -0.010413 -0.016098
			-0.011981 -0.011261 -0.014198
			-0.012050 -0.012952 -0.010507
			-0.012516 -0.010116 -0.009914
			-0.012613 -0.008807 -0.010102
			-0.012410 -0.009175 -0.011043
			-0.012074 -0.009727 -0.012397
			-0.012243 -0.009030 -0.011675
			-0.012738 -0.009963 -0.013178
			-0.012251 -0.010710 -0.013705
			-0.010140 -0.016671 -0.010683
			-0.010982 -0.016998 -0.010363
			-0.005490 -0.015136 -0.009088
			-0.005575 -0.014715 -0.009500
			-0.005638 -0.013980 -0.009737
			-0.005537 -0.014034 -0.009119
			-0.006766 -0.009814 -0.009906
			-0.002625 -0.011369 -0.009523
			-0.005673 -0.011550 -0.012569
			-0.006697 -0.010316 -0.011900
			-0.004077 -0.012729 -0.008725
			-0.003848 -0.010944 -0.008974
			-0.005476 -0.012907 -0.009710
			-0.005358 -0.012465 -0.009341
			-0.006908 -0.014668 -0.009170
			-0.008009 -0.014749 -0.010309
			-0.010333 -0.010591 -0.014179
			-0.011096 -0.010256 -0.014380
			-0.010368 -0.010240 -0.013486
			-0.009653 -0.010326 -0.012431
			-0.008789 -0.010906 -0.012116
			-0.011430 -0.010778 -0.014590
			-0.010759 -0.011735 -0.010528
			-0.009372 -0.012321 -0.010635
			-0.011733 -0.010944 -0.009999
			-0.012118 -0.009099 -0.009676
			-0.012067 -0.008859 -0.010281
			-0.010489 -0.008666 -0.010811
			-0.011441 -0.009578 -0.012864
			-0.010701 -0.008962 -0.011478
			-0.011500 -0.009986 -0.013571
			-0.008714 -0.013785 -0.010641
			-0.005549 -0.013202 -0.009067
			-0.007008 -0.012544 -0.009612
			-0.007594 -0.009441 -0.009642
			-0.008932 -0.009399 -0.009988
			-0.009176 -0.010089 -0.011405
			-0.005509 -0.011886 -0.009090
			-0.007635 -0.011033 -0.009558
			-0.010349 -0.011040 -0.010221
			-0.011340 -0.010385 -0.009777
			-0.010959 -0.009318 -0.009394
			-0.010014 -0.009199 -0.009319
			-0.008585 -0.011254 -0.009587
			-0.011604 -0.009145 -0.009453
			-0.010838 -0.008334 -0.009342
			-0.010236 -0.008435 -0.009685
			-0.008112 -0.009968 -0.009734
			-0.009250 -0.009963 -0.009359
		</DataArray>
	</Points>
			<Polys>
				<DataArray type="Int32" Name="connectivity" format="ascii">
					0 1 2 
					2 3 0 
					0 3 4 
					5 1 0 
					0 4 6 
					5 0 6 
					7 1 8 
					9 1 10 
					5 8 1 
					1 11 2 
					7 10 1 
					12 1 9 
					11 1 12 
					3 2 13 
					2 11 13 
					14 15 3 
					14 3 13 
					3 15 4 
					4 16 17 
					4 18 16 
					17 6 4 
					19 18 4 
					15 20 4 
					4 20 19 
					21 22 5 
					23 5 6 
					5 23 21 
					8 5 22 
					6 17 23 
					24 10 7 
					8 25 7 
					25 26 7 
					24 7 26 
					8 22 27 
					27 28 8 
					8 29 25 
					28 29 8 
					30 9 24 
					10 24 9 
					31 12 9 
					31 9 30 
					13 11 32 
					11 12 33 
					11 33 32 
					12 31 33 
					34 13 32 
					14 13 34 
					35 14 34 
					35 15 14 
					35 20 15 
					17 16 36 
					16 37 36 
					16 18 37 
					23 17 36 
					18 38 37 
					19 38 18 
					19 39 38 
					20 39 19 
					40 20 35 
					20 40 39 
					21 41 22 
					21 23 41 
					22 42 27 
					41 42 22 
					43 41 23 
					36 43 23 
					24 26 44 
					24 44 30 
					25 29 44 
					25 44 26 
					27 45 28 
					27 42 45 
					28 45 46 
					46 47 28 
					47 48 28 
					28 48 29 
					29 48 49 
					29 49 44 
					50 51 30 
					51 31 30 
					30 44 49 
					50 30 49 
					51 33 31 
					52 32 33 
					34 32 52 
					33 51 52 
					34 52 35 
					53 35 52 
					54 35 53 
					40 35 54 
					55 36 56 
					36 55 43 
					37 56 36 
					37 57 58 
					58 59 37 
					37 60 56 
					37 59 60 
					38 57 37 
					39 57 38 
					40 57 39 
					57 40 54 
					41 55 42 
					55 41 43 
					45 42 61 
					55 61 42 
					45 62 46 
					45 63 62 
					63 45 64 
					45 65 64 
					61 65 45 
					46 62 47 
					47 66 67 
					68 47 69 
					62 69 47 
					67 48 47 
					47 68 70 
					66 47 70 
					48 67 49 
					71 72 49 
					73 49 72 
					49 74 71 
					75 74 49 
					50 49 73 
					67 75 49 
					76 50 73 
					50 52 51 
					50 76 52 
					76 77 52 
					53 52 77 
					57 53 78 
					78 53 77 
					54 53 57 
					79 80 55 
					55 56 60 
					55 81 61 
					60 79 55 
					55 80 81 
					78 82 57 
					82 58 57 
					59 58 83 
					84 85 58 
					85 83 58 
					58 82 84 
					60 59 83 
					60 86 87 
					83 86 60 
					60 87 79 
					65 61 81 
					63 88 62 
					88 89 62 
					69 62 89 
					90 63 64 
					90 91 63 
					91 88 63 
					92 90 64 
					92 64 93 
					65 93 64 
					94 95 65 
					93 65 96 
					95 96 65 
					65 81 94 
					66 70 97 
					97 98 66 
					98 67 66 
					67 98 99 
					67 99 75 
					100 68 69 
					68 100 101 
					68 101 102 
					68 102 70 
					69 103 100 
					104 103 69 
					69 89 104 
					70 102 105 
					70 105 97 
					106 71 107 
					74 107 71 
					71 106 72 
					108 73 72 
					72 106 109 
					108 72 110 
					109 110 72 
					73 108 76 
					99 74 75 
					111 107 74 
					74 99 111 
					77 76 108 
					112 113 77 
					112 77 108 
					78 77 113 
					82 78 113 
					114 79 87 
					115 79 114 
					115 80 79 
					81 80 116 
					115 117 80 
					117 116 80 
					118 81 116 
					119 94 81 
					119 81 118 
					84 82 113 
					83 85 86 
					112 110 84 
					84 110 120 
					120 85 84 
					84 113 112 
					85 120 121 
					85 121 86 
					86 122 87 
					123 86 121 
					86 123 122 
					122 124 87 
					114 87 124 
					91 104 88 
					88 104 89 
					125 90 92 
					90 125 126 
					90 126 91 
					91 126 104 
					92 127 125 
					92 128 127 
					92 93 129 
					92 129 128 
					129 93 96 
					130 131 94 
					94 119 130 
					95 94 131 
					96 95 131 
					132 96 133 
					133 96 131 
					134 96 132 
					135 96 134 
					129 96 135 
					136 97 119 
					105 119 97 
					97 137 98 
					137 97 138 
					136 138 97 
					139 140 98 
					139 98 141 
					141 98 137 
					140 99 98 
					111 99 140 
					103 142 100 
					142 143 100 
					101 100 143 
					144 102 101 
					143 144 101 
					102 144 145 
					145 105 102 
					126 103 104 
					142 103 146 
					103 126 146 
					130 119 105 
					105 131 130 
					105 145 131 
					107 147 106 
					106 147 109 
					148 107 111 
					147 107 148 
					108 110 112 
					149 109 147 
					109 149 110 
					110 149 121 
					110 121 120 
					111 140 148 
					115 114 150 
					114 124 150 
					115 150 151 
					117 115 151 
					117 152 116 
					116 152 118 
					152 117 153 
					117 151 153 
					118 152 136 
					136 119 118 
					123 121 149 
					123 154 122 
					154 124 122 
					155 154 123 
					155 123 149 
					150 124 154 
					125 146 126 
					125 127 146 
					156 127 157 
					127 158 157 
					127 156 159 
					127 159 146 
					127 128 158 
					128 129 160 
					128 160 158 
					129 135 160 
					133 131 145 
					134 132 161 
					162 161 132 
					133 162 132 
					145 163 133 
					162 133 163 
					164 134 165 
					165 134 166 
					167 166 134 
					167 134 161 
					135 134 164 
					168 169 135 
					135 164 170 
					135 170 168 
					160 135 169 
					171 136 152 
					138 136 171 
					172 137 173 
					137 172 141 
					138 173 137 
					138 171 173 
					139 141 155 
					139 155 174 
					148 140 139 
					148 139 174 
					141 172 154 
					154 155 141 
					146 175 142 
					176 142 177 
					176 178 142 
					178 143 142 
					177 142 175 
					179 144 143 
					180 143 178 
					143 180 179 
					144 179 163 
					163 145 144 
					159 175 146 
					174 149 147 
					174 147 148 
					155 149 174 
					150 154 181 
					150 181 151 
					151 181 182 
					153 151 182 
					173 171 152 
					173 152 182 
					152 153 182 
					154 172 181 
					157 183 156 
					156 183 184 
					184 159 156 
					158 185 157 
					185 183 157 
					160 186 158 
					185 158 186 
					187 159 184 
					175 159 187 
					160 169 188 
					188 186 160 
					161 162 189 
					161 189 167 
					162 163 189 
					189 163 179 
					190 164 165 
					191 192 164 
					191 164 190 
					192 170 164 
					165 166 190 
					193 194 166 
					167 195 166 
					166 196 193 
					166 194 190 
					196 166 195 
					189 195 167 
					168 170 197 
					197 198 168 
					198 169 168 
					198 188 169 
					192 197 170 
					172 173 182 
					172 182 181 
					177 175 199 
					175 187 199 
					200 176 201 
					202 176 203 
					176 177 203 
					202 201 176 
					178 176 200 
					203 177 199 
					178 204 180 
					178 200 205 
					205 204 178 
					206 179 180 
					189 179 206 
					207 206 180 
					204 207 180 
					185 208 183 
					209 183 208 
					184 183 210 
					183 209 210 
					184 211 212 
					212 213 184 
					213 187 184 
					184 210 214 
					214 211 184 
					208 185 215 
					185 186 215 