<?xml version="1.0"?>
<VTKFile type="PolyData" version="0.1" byte_order="LittleEndian" compressor="vtkZLibDataCompressor">
	<PolyData>
		<Piece NumberOfPoints="143" NumberOfVerts="0" NumberOfLines="0" NumberOfStrips="0" NumberOfPolys="282">
		<PointData Normals="Normals">
		<DataArray type="Float32" Name="Normals" NumberOfComponents="3" format="ascii">
			-0.493506 -0.244101  0.834785
			 0.018616 -0.191220  0.981371
			-0.167883  0.014803  0.985696
			-0.731264 -0.117341  0.671925
			-0.810645 -0.044684  0.583831
			-0.367816 -0.650063  0.664928
			-0.595272 -0.500348  0.628731
			 0.591912 -0.137568  0.794176
			 0.141114 -0.661209  0.736810
			 0.063903  0.363346  0.929460
			 0.312551  0.342111  0.886156
			-0.311735  0.040372  0.949311
			-0.717776 -0.171280  0.674878
			-0.832281 -0.259695  0.489762
			-0.887198 -0.238654  0.394873
			-0.963373 -0.172894  0.204990
			-0.911810 -0.153430  0.380869
			-0.272172 -0.816101  0.509806
			-0.134112 -0.942622  0.305742
			 0.861849 -0.392340  0.321382
			 0.880899  0.031710  0.472242
			 0.804578  0.268071  0.529898
			 0.569945  0.630246  0.527212
			 0.393813  0.576959  0.715563
			 0.312332 -0.933143  0.178024
			 0.607052 -0.787908 -0.103384
			 0.363476  0.489464  0.792660
			 0.432288  0.114735  0.894407
			-0.403439 -0.081215  0.911395
			-0.831501 -0.262972  0.489338
			-0.820657 -0.343091  0.456958
			-0.943021 -0.170488  0.285737
			-0.951392 -0.154125 -0.266645
			-0.895328 -0.047871 -0.442828
			-0.844476 -0.508000  0.169698
			-0.925677 -0.241192  0.291460
			-0.832225 -0.511572 -0.213767
			-0.399666 -0.704283  0.586731
			 0.016655 -0.920522  0.390336
			 0.132578 -0.977087 -0.166506
			 0.296127 -0.953979  0.047253
			 0.351125 -0.915661  0.195644
			 0.949179 -0.126549 -0.288175
			 0.778784 -0.588114 -0.218213
			 0.911582  0.330090 -0.245067
			 0.757784  0.635815  0.146634
			 0.554339  0.801363 -0.224778
			 0.302529  0.947535 -0.103219
			 0.378594  0.909042  0.174096
			 0.527262  0.766891  0.365887
			 0.499131 -0.724348 -0.475593
			 0.931693  0.321578 -0.168927
			 0.377521  0.031070  0.925480
			 0.846037  0.049423  0.530828
			 0.930706  0.101632  0.351366
			-0.366730 -0.290768  0.883721
			 0.232262 -0.196248  0.952650
			-0.759308 -0.212812  0.614950
			-0.908079 -0.386465  0.161358
			-0.869343 -0.378640 -0.317608
			-0.682734 -0.706558  0.186144
			-0.676062  0.271213 -0.685116
			-0.141595  0.256079 -0.956229
			-0.551239 -0.501361 -0.666913
			-0.548256 -0.031422 -0.835720
			-0.202008  0.707897 -0.676812
			-0.560546 -0.733276 -0.384831
			-0.093177 -0.941207 -0.324728
			 0.544247 -0.751675 -0.372532
			 0.524087 -0.795790 -0.303400
			 0.668321 -0.236038 -0.705431
			 0.540533  0.399630 -0.740351
			 0.293047  0.842762 -0.451527
			 0.419986  0.722525 -0.549152
			 0.566822  0.815566 -0.116469
			 0.663651 -0.354675 -0.658614
			 0.455839  0.394475 -0.797873
			 0.372856  0.377047 -0.847829
			 0.497744  0.072191 -0.864315
			 0.870762  0.023354 -0.491150
			 0.896242 -0.145892  0.418886
			 0.985999 -0.040634 -0.161723
			 0.992389 -0.115812  0.041862
			 0.062475 -0.072071  0.995441
			-0.714809 -0.353359  0.603478
			-0.663076  0.065014  0.745724
			-0.304269  0.148949  0.940869
			 0.570352 -0.107053  0.814394
			-0.973267  0.116279  0.198065
			-0.919326 -0.201683 -0.337882
			-0.229089 -0.496948 -0.836995
			-0.877602 -0.072775  0.473834
			-0.141462 -0.228832 -0.963132
			-0.103856  0.655346 -0.748155
			 0.263215  0.380813 -0.886397
			 0.369728  0.586096 -0.720967
			 0.087017 -0.721398 -0.687033
			 0.192245 -0.286459 -0.938607
			 0.059271  0.342240 -0.937741
			 0.510121  0.571487 -0.642791
			 0.439157  0.612416 -0.657334
			 0.672559 -0.290031 -0.680842
			 0.588366  0.315642 -0.744443
			 0.247512  0.699500 -0.670401
			 0.391289  0.737543 -0.550385
			 0.541400 -0.208907 -0.814398
			 0.949563 -0.029191  0.312216
			 0.893242 -0.284191 -0.348359
			 0.830643 -0.230954 -0.506648
			-0.072861  0.586152  0.806918
			 0.432915  0.575711  0.693644
			-0.600206  0.745661  0.289382
			-0.512153  0.762837  0.394688
			-0.369768  0.712075  0.596842
			-0.971222  0.238126 -0.004804
			-0.672739  0.722154  0.160984
			-0.740715  0.633677 -0.223149
			-0.624363  0.306015 -0.718698
			-0.393629 -0.207936 -0.895444
			 0.546526 -0.366082 -0.753189
			 0.309390 -0.297949 -0.903053
			 0.796564  0.542744  0.266299
			 0.999743 -0.005900 -0.021882
			 0.748146  0.297028 -0.593340
			 0.062566  0.751366  0.656913
			 0.290605  0.772683  0.564367
			-0.221438  0.826162  0.518094
			 0.348981  0.936671  0.029328
			-0.346529  0.929174 -0.128659
			-0.050718  0.963156 -0.264119
			-0.388222  0.917889  0.082241
			-0.368777  0.834722 -0.408955
			-0.206713  0.774962 -0.597247
			-0.346747  0.348745 -0.870714
			 0.051509  0.391643 -0.918674
			 0.533574  0.239611 -0.811102
			 0.813330  0.581604 -0.015153
			 0.138949  0.934393 -0.328030
			-0.038684  0.968884  0.244475
			 0.398452  0.754685  0.521235
			-0.216974  0.941353 -0.258412
			-0.209322  0.957481 -0.198530
			 0.121579  0.745543 -0.655275
		</DataArray>
	</PointData>
	<Points>
		<DataArray type="Float32" NumberOfComponents="3" format="ascii">
			 0.023482 -0.068596  0.057583
			 0.024971 -0.068199  0.058362
			 0.024320 -0.066802  0.058527
			 0.020920 -0.067187  0.056084
			 0.020930 -0.066621  0.055907
			 0.023941 -0.069220  0.057456
			 0.022635 -0.068682  0.056836
			 0.028529 -0.069046  0.056372
			 0.026051 -0.069274  0.058004
			 0.024275 -0.063407  0.057690
			 0.025271 -0.063367  0.057624
			 0.021708 -0.061255  0.057173
			 0.019351 -0.060269  0.055407
			 0.020702 -0.068128  0.055181
			 0.019285 -0.061936  0.054522
			 0.019345 -0.065322  0.052841
			 0.020057 -0.067117  0.054304
			 0.022055 -0.069277  0.055598
			 0.024786 -0.069745  0.056983
			 0.029047 -0.068479  0.056044
			 0.029752 -0.065843  0.055516
			 0.029643 -0.065166  0.055543
			 0.028573 -0.063967  0.055996
			 0.026105 -0.062795  0.056859
			 0.027485 -0.069985  0.055773
			 0.028441 -0.069346  0.055220
			 0.025141 -0.062847  0.057285
			 0.023440 -0.057564  0.057188
			 0.018301 -0.055162  0.055818
			 0.015977 -0.053823  0.054080
			 0.020610 -0.069488  0.054421
			 0.020522 -0.068926  0.054300
			 0.018475 -0.062029  0.051836
			 0.019317 -0.064771  0.050245
			 0.020307 -0.070595  0.052609
			 0.020529 -0.070146  0.053394
			 0.020358 -0.070748  0.051906
			 0.021021 -0.070332  0.054009
			 0.021539 -0.070979  0.053261
			 0.026149 -0.070134  0.054532
			 0.024627 -0.069918  0.053299
			 0.023413 -0.070908  0.052161
			 0.029917 -0.066817  0.054094
			 0.029217 -0.068512  0.054708
			 0.029714 -0.064894  0.054091
			 0.029235 -0.064062  0.054870
			 0.028910 -0.063778  0.054143
			 0.026985 -0.062947  0.054945
			 0.026746 -0.062776  0.056353
			 0.025585 -0.062468  0.056387
			 0.027690 -0.068926  0.053068
			 0.025090 -0.059183  0.055065
			 0.023063 -0.053737  0.056868
			 0.023829 -0.053951  0.056252
			 0.024355 -0.055921  0.055854
			 0.017755 -0.047962  0.056981
			 0.023464 -0.049849  0.057123
			 0.015136 -0.050790  0.053837
			 0.013855 -0.050093  0.051462
			 0.017657 -0.059359  0.051599
			 0.020529 -0.071132  0.052423
			 0.019809 -0.063553  0.050149
			 0.019881 -0.061905  0.050521
			 0.021727 -0.068547  0.048265
			 0.020848 -0.066017  0.047746
			 0.021054 -0.064518  0.048310
			 0.020858 -0.070814  0.051321
			 0.021882 -0.071235  0.050974
			 0.025877 -0.069167  0.051989
			 0.024625 -0.069977  0.050297
			 0.028461 -0.067542  0.052445
			 0.027647 -0.064613  0.052422
			 0.027499 -0.063347  0.053605
			 0.025417 -0.063157  0.053586
			 0.026111 -0.062713  0.055364
			 0.026291 -0.067942  0.051135
			 0.022081 -0.062633  0.050652
			 0.021720 -0.061717  0.050962
			 0.019192 -0.058821  0.050948
			 0.024419 -0.055969  0.054553
			 0.024418 -0.051786  0.055422
			 0.024422 -0.053977  0.054808
			 0.024567 -0.051807  0.054479
			 0.022345 -0.043811  0.058624
			 0.014344 -0.048689  0.053791
			 0.014741 -0.045093  0.056007
			 0.019276 -0.044824  0.058591
			 0.024745 -0.043741  0.058222
			 0.012063 -0.044817  0.051271
			 0.011828 -0.046475  0.047756
			 0.015567 -0.051244  0.048266
			 0.012732 -0.045914  0.053779
			 0.018355 -0.059144  0.050291
			 0.020755 -0.063824  0.049113
			 0.021104 -0.062595  0.050301
			 0.021419 -0.063539  0.050077
			 0.022505 -0.070237  0.049464
			 0.022833 -0.068699  0.048173
			 0.021716 -0.065094  0.047481
			 0.023603 -0.064895  0.048968
			 0.022313 -0.063720  0.050495
			 0.025016 -0.068403  0.049124
			 0.025969 -0.066153  0.050881
			 0.026967 -0.063779  0.052780
			 0.024746 -0.064390  0.051438
			 0.019194 -0.052829  0.049581
			 0.026277 -0.043227  0.056076
			 0.025259 -0.045781  0.052506
			 0.024352 -0.051836  0.053660
			 0.021915 -0.042311  0.058270
			 0.024702 -0.042011  0.058028
			 0.012803 -0.044138  0.052302
			 0.015916 -0.043285  0.055900
			 0.019904 -0.041662  0.056987
			 0.011969 -0.044160  0.048782
			 0.012216 -0.043586  0.048993
			 0.012292 -0.043384  0.047818
			 0.013250 -0.044136  0.046050
			 0.015097 -0.045915  0.044824
			 0.019134 -0.049438  0.048493
			 0.017213 -0.045544  0.044348
			 0.025972 -0.041927  0.055565
			 0.026649 -0.043007  0.053886
			 0.025722 -0.041847  0.050411
			 0.022478 -0.040673  0.056546
			 0.023869 -0.041251  0.056601
			 0.021244 -0.041101  0.056890
			 0.024561 -0.040478  0.053966
			 0.020468 -0.042084  0.051420
			 0.020812 -0.041883  0.047870
			 0.021661 -0.040465  0.055611
			 0.013598 -0.043146  0.046594
			 0.015524 -0.043075  0.045588
			 0.015203 -0.044086  0.044767
			 0.017109 -0.044161  0.044415
			 0.019415 -0.043393  0.046107
			 0.026286 -0.041565  0.053068
			 0.024138 -0.041054  0.050168
			 0.023029 -0.040030  0.055576
			 0.023421 -0.040430  0.056087
			 0.022277 -0.040285  0.054909
			 0.022906 -0.040895  0.053180
			 0.017090 -0.043046  0.045492
		</DataArray>
	</Points>
			<Polys>
				<DataArray type="Int32" Name="connectivity" format="ascii">
					0 1 2 
					3 0 4 
					5 1 0 
					3 6 0 
					5 0 6 
					4 0 2 
					7 2 1 
					8 7 1 
					8 1 5 
					9 2 10 
					10 2 7 
					11 2 9 
					12 4 2 
					12 2 11 
					6 3 13 
					3 4 13 
					12 14 4 
					14 15 4 
					4 15 16 
					16 13 4 
					5 6 17 
					5 18 8 
					17 18 5 
					13 17 6 
					19 20 7 
					21 7 20 
					21 22 7 
					22 23 7 
					23 10 7 
					24 7 8 
					19 7 25 
					7 24 25 
					24 8 18 
					11 9 26 
					10 26 9 
					26 10 23 
					26 27 11 
					28 11 27 
					29 12 11 
					11 28 29 
					12 29 14 
					30 17 13 
					31 13 16 
					13 31 30 
					15 14 32 
					32 14 29 
					15 32 33 
					15 34 35 
					15 35 16 
					33 36 15 
					36 34 15 
					31 16 35 
					17 37 38 
					39 18 17 
					17 30 37 
					40 17 41 
					17 38 41 
					17 40 39 
					39 24 18 
					42 20 19 
					43 42 19 
					43 19 25 
					20 44 21 
					20 42 44 
					45 21 44 
					22 21 45 
					22 46 47 
					22 48 23 
					47 48 22 
					45 46 22 
					23 49 26 
					48 49 23 
					25 24 39 
					43 25 50 
					50 25 39 
					27 26 51 
					49 51 26 
					27 52 28 
					52 27 53 
					51 54 27 
					54 53 27 
					55 28 56 
					52 56 28 
					28 55 57 
					57 29 28 
					58 29 57 
					29 58 59 
					59 32 29 
					60 37 30 
					60 30 35 
					30 31 35 
					61 33 32 
					62 61 32 
					32 59 62 
					63 36 33 
					63 33 64 
					33 65 64 
					65 33 61 
					60 35 34 
					34 36 66 
					60 34 66 
					36 63 66 
					37 60 38 
					60 67 38 
					41 38 67 
					50 39 68 
					39 40 68 
					40 69 68 
					40 41 69 
					69 41 67 
					70 71 42 
					42 43 70 
					44 42 71 
					50 70 43 
					71 46 44 
					45 44 46 
					72 47 46 
					72 46 71 
					72 73 47 
					74 47 73 
					74 48 47 
					48 74 49 
					74 51 49 
					68 75 50 
					70 50 75 
					76 77 51 
					76 51 73 
					51 77 78 
					51 78 79 
					74 73 51 
					51 79 54 
					53 80 52 
					56 52 80 
					81 82 53 
					81 53 54 
					80 53 82 
					81 54 79 
					56 83 55 
					57 55 84 
					84 55 85 
					83 86 55 
					86 85 55 
					56 87 83 
					87 56 80 
					58 57 84 
					58 88 89 
					59 58 90 
					58 84 91 
					91 88 58 
					58 89 90 
					92 62 59 
					90 92 59 
					66 67 60 
					62 93 61 
					93 65 61 
					78 62 92 
					77 76 62 
					76 94 62 
					93 62 95 
					62 94 95 
					77 62 78 
					66 63 67 
					96 63 97 
					97 63 64 
					96 67 63 
					98 97 64 
					65 98 64 
					95 65 93 
					98 65 99 
					65 100 99 
					100 65 95 
					96 69 67 
					69 101 68 
					75 68 101 
					101 69 96 
					102 70 75 
					102 71 70 
					103 71 102 
					103 72 71 
					103 73 72 
					100 76 73 
					104 100 73 
					104 73 103 
					75 101 102 
					76 100 94 
					78 90 105 
					105 79 78 
					92 90 78 
					105 81 79 
					106 87 80 
					80 82 107 
					106 80 107 
					108 81 105 
					108 82 81 
					108 107 82 
					109 86 83 
					110 109 83 
					87 110 83 
					91 84 85 
					91 85 111 
					85 112 111 
					112 85 86 
					113 86 109 
					112 86 113 
					110 87 106 
					114 88 115 
					88 91 111 
					111 115 88 
					88 114 89 
					114 116 89 
					117 89 116 
					118 90 89 
					117 118 89 
					119 105 90 
					118 120 90 
					90 120 119 
					95 94 100 
					101 96 97 
					98 99 97 
					99 101 97 
					99 100 104 
					99 104 102 
					102 101 99 
					104 103 102 
					107 108 105 
					107 105 119 
					106 121 110 
					122 106 107 
					121 106 122 
					119 123 107 
					107 123 122 
					124 109 125 
					109 110 125 
					109 126 113 
					126 109 124 
					127 125 110 
					127 110 121 
					128 111 112 
					115 111 129 
					111 128 129 
					130 112 113 
					112 130 128 
					130 113 126 
					115 116 114 
					116 115 129 
					131 117 116 
					131 116 129 
					132 117 131 
					133 118 117 
					133 117 132 
					133 134 118 
					120 118 134 
					123 119 135 
					120 135 119 
					134 135 120 
					121 136 127 
					121 122 136 
					136 122 123 
					137 123 129 
					123 135 129 
					136 123 127 
					137 127 123 
					138 126 124 
					125 139 124 
					139 138 124 
					127 139 125 
					138 130 126 
					127 138 139 
					140 138 127 
					141 127 137 
					140 127 141 
					130 140 128 
					140 141 128 
					128 141 129 
					129 135 142 
					131 129 132 
					142 132 129 
					129 141 137 
					130 138 140 
					134 133 132 
					134 132 142 
					134 142 135 
				</DataArray>
				<DataArray type="Int32" Name="offsets" format="ascii">
					3 6 9 12 15 18 21 24 27 30 33 36 39 42 45 48 51 54 57 60 63 66 69 72 75 78 81 84 87 90 93 96 99 102 105 108 111 114 117 120 123 126 129 132 135 138 141 144 147 150 153 156 159 162 165 168 171 174 177 180 183 186 189 192 195 198 201 204 207 210 213 216 219 222 225 228 231 234 237 240 243 246 249 252 255 258 261 264 267 270 273 276 279 282 285 288 291 294 297 300 303 306 309 312 315 318 321 324 327 330 333 336 339 342 345 348 351 354 357 360 363 366 369 372 375 378 381 384 387 390 393 396 399 402 405 408 411 414 417 420 423 426 429 432 435 438 441 444 447 450 453 456 459 462 465 468 471 474 477 480 483 486 489 492 495 498 501 504 507 510 513 516 519 522 525 528 531 534 537 540 543 546 549 552 555 558 561 564 567 570 573 576 579 582 585 588 591 594 597 600 603 606 609 612 615 618 621 624 627 630 633 636 639 642 645 648 651 654 657 660 663 666 669 672 675 678 681 684 687 690 693 696 699 702 705 708 711 714 717 720 723 726 729 732 735 738 741 744 747 750 753 756 759 762 765 768 771 774 777 780 783 786 789 792 795 798 801 804 807 810 813 816 819 822 825 828 831 834 837 840 843 846 
				</DataArray>
			</Polys>
		</Piece>
	</PolyData>
</VTKFile>
