<?xml version="1.0"?>
<VTKFile type="PolyData" version="0.1" byte_order="LittleEndian" compressor="vtkZLibDataCompressor">
	<PolyData>
		<Piece NumberOfPoints="134" NumberOfVerts="0" NumberOfLines="0" NumberOfStrips="0" NumberOfPolys="264">
		<PointData Normals="Normals">
		<DataArray type="Float32" Name="Normals" NumberOfComponents="3" format="ascii">
			-0.619098 -0.785299  0.004852
			-0.372353 -0.739857  0.560326
			-0.553359 -0.546817  0.628319
			-0.005614 -0.896418  0.443174
			 0.067473 -0.994368 -0.081733
			-0.744151 -0.630310  0.221241
			-0.730154 -0.669516 -0.136466
			-0.643177 -0.616612 -0.453996
			-0.395849 -0.904241 -0.160162
			 0.107887 -0.307189  0.945513
			-0.399413 -0.223807  0.889033
			-0.285559  0.052539  0.956920
			 0.451428 -0.639716  0.622074
			 0.736844 -0.675772  0.019842
			 0.227866 -0.973295 -0.027810
			 0.839274 -0.540107 -0.062471
			-0.667529 -0.664289 -0.336339
			-0.575717 -0.688666  0.440782
			-0.725469 -0.503248 -0.469506
			-0.159360 -0.822141 -0.546524
			-0.700384 -0.248797 -0.669001
			-0.402458 -0.129004 -0.906303
			-0.213108 -0.212485 -0.953643
			 0.163895 -0.974260 -0.154779
			 0.647603 -0.307355  0.697240
			 0.217967  0.036722  0.975265
			-0.030430  0.093935  0.995113
			 0.461739  0.567750  0.681510
			 0.834304  0.329783  0.441793
			 0.042347  0.645889  0.762256
			 0.525243  0.322784  0.787357
			-0.208576 -0.410702  0.887592
			 0.062195  0.887239  0.457099
			 0.956931 -0.144829  0.251611
			 0.986440 -0.024924 -0.162219
			 0.704068 -0.710107 -0.006045
			 0.932907  0.359290 -0.024388
			 0.995610 -0.092274 -0.015688
			-0.331782 -0.206988 -0.920368
			-0.540381 -0.264673 -0.798709
			-0.638142 -0.768881 -0.039947
			-0.615077 -0.653237 -0.441545
			-0.278447 -0.273952 -0.920553
			-0.355426 -0.419700 -0.835179
			-0.438482 -0.778249  0.449512
			-0.226102 -0.563826  0.794342
			-0.133983 -0.562627  0.815781
			-0.492575  0.179382 -0.851582
			 0.570100 -0.565164 -0.596302
			-0.292159 -0.021787 -0.956122
			-0.211359 -0.047356 -0.976261
			 0.203691 -0.011496 -0.978968
			 0.585894  0.809941 -0.026917
			 0.886419  0.459446 -0.056307
			 0.452481  0.871438  0.189357
			 0.712038  0.702133 -0.003351
			 0.719219  0.410624  0.560456
			 0.229435 -0.184202  0.955735
			 0.552831  0.829414  0.080319
			 0.811133  0.583966  0.032374
			 0.840014 -0.108819 -0.531540
			 0.826819  0.273396 -0.491554
			-0.114890  0.364094 -0.924249
			 0.344088  0.492866 -0.799179
			-0.671199 -0.631022 -0.388977
			-0.669282 -0.671354  0.318349
			-0.721262 -0.691717 -0.036161
			 0.607489  0.521613 -0.599063
			-0.674597 -0.382524 -0.631343
			-0.281290 -0.218846 -0.934335
			 0.059631 -0.106121 -0.992564
			 0.391206  0.234332 -0.889970
			-0.215788 -0.812422  0.541670
			 0.380507 -0.400094  0.833750
			 0.490793 -0.027387  0.870846
			 0.147884  0.795853 -0.587152
			 0.005935  0.832945 -0.553324
			-0.036658  0.424445 -0.904711
			 0.184245  0.242424 -0.952515
			 0.481345  0.861943 -0.159251
			 0.384356  0.923171 -0.005167
			 0.808065  0.446794  0.383935
			 0.606648  0.617952 -0.500113
			 0.405017  0.843981 -0.351651
			-0.968055  0.037517 -0.247917
			-0.866985  0.410148  0.283046
			-0.374948 -0.647635  0.663312
			-0.749443  0.639238  0.172366
			-0.718687 -0.270199  0.640688
			 0.923845  0.272410  0.268893
			 0.874475  0.436082 -0.212430
			-0.674229  0.318044 -0.666531
			-0.772516  0.600539 -0.206331
			 0.055241  0.181782 -0.981786
			 0.573222  0.279871 -0.770123
			 0.106404 -0.577322  0.809554
			 0.377796 -0.151067  0.913481
			 0.709085  0.168173  0.684775
			-0.343298  0.916968  0.203264
			-0.253105  0.963357  0.088773
			-0.178949 -0.362407  0.914679
			-0.742042  0.160587  0.650834
			-0.779579  0.626267  0.006837
			-0.654617  0.667571  0.354719
			-0.844004  0.510417  0.164715
			-0.661518  0.748244  0.050252
			-0.905421  0.413483  0.096152
			-0.726820  0.595964  0.341409
			-0.432800  0.901454 -0.008068
			 0.764467  0.614147  0.195992
			 0.710925  0.584765 -0.390686
			-0.430626  0.650838 -0.625277
			-0.759157  0.589467  0.276061
			 0.297790  0.437551 -0.848451
			 0.092763 -0.158338  0.983018
			 0.076152  0.348770  0.934110
			 0.462126  0.574757  0.675348
			-0.454435  0.885852  0.093570
			-0.699734  0.692938  0.173807
			-0.439646  0.237601  0.866174
			-0.503226  0.823241  0.262749
			-0.041042  0.908859  0.415080
			-0.353484  0.793783  0.494931
			-0.942666  0.136040  0.304753
			-0.761549  0.638666  0.110225
			-0.975846  0.158992  0.149819
			-0.846647  0.530379  0.043438
			-0.751017  0.654418  0.087813
			-0.610576  0.771752  0.177750
			 0.180970  0.704754 -0.685982
			-0.342595  0.924512 -0.167051
			-0.542400  0.825057 -0.158376
			-0.934391  0.328137  0.138712
			-0.919103  0.361095  0.157674
		</DataArray>
	</PointData>
	<Points>
		<DataArray type="Float32" NumberOfComponents="3" format="ascii">
			 0.039308 -0.140188  0.016532
			 0.039684 -0.140332  0.017770
			 0.037679 -0.138068  0.018509
			 0.041080 -0.140671  0.017855
			 0.040640 -0.140880  0.016552
			 0.036769 -0.136972  0.017893
			 0.037207 -0.137574  0.014793
			 0.039789 -0.139618  0.011345
			 0.039965 -0.140156  0.013401
			 0.042435 -0.137433  0.019592
			 0.036987 -0.135634  0.019238
			 0.038347 -0.135560  0.019817
			 0.042432 -0.139915  0.018294
			 0.042908 -0.139876  0.017364
			 0.040600 -0.140400  0.014138
			 0.042650 -0.139126  0.014524
			 0.032629 -0.133364  0.014996
			 0.034751 -0.135115  0.017620
			 0.036673 -0.136196  0.013119
			 0.041040 -0.140062  0.011006
			 0.037642 -0.136801  0.011760
			 0.038609 -0.136567  0.011096
			 0.040580 -0.139213  0.010612
			 0.041131 -0.140395  0.012108
			 0.042820 -0.138811  0.018926
			 0.041336 -0.136326  0.019967
			 0.039747 -0.135652  0.020091
			 0.041466 -0.135298  0.019620
			 0.042988 -0.136711  0.018965
			 0.037859 -0.134603  0.018921
			 0.036708 -0.133470  0.019299
			 0.035619 -0.134367  0.019184
			 0.039169 -0.134444  0.019321
			 0.043442 -0.138121  0.018268
			 0.043410 -0.137911  0.016460
			 0.042618 -0.139570  0.012679
			 0.042813 -0.137130  0.014874
			 0.043401 -0.137732  0.012761
			 0.033362 -0.132311  0.013107
			 0.036610 -0.135188  0.012330
			 0.028562 -0.129365  0.015494
			 0.027798 -0.128372  0.014730
			 0.031568 -0.130193  0.012815
			 0.026863 -0.126002  0.013318
			 0.028725 -0.128635  0.020908
			 0.032962 -0.131655  0.020145
			 0.031093 -0.129409  0.021378
			 0.037687 -0.135357  0.011577
			 0.042306 -0.139261  0.010722
			 0.038605 -0.135943  0.010996
			 0.040375 -0.137114  0.011004
			 0.042417 -0.137497  0.010232
			 0.041709 -0.135200  0.017464
			 0.043142 -0.136552  0.017112
			 0.038108 -0.134083  0.017505
			 0.034253 -0.130103  0.017290
			 0.035202 -0.131685  0.019615
			 0.034891 -0.132186  0.019927
			 0.041331 -0.135209  0.015312
			 0.042867 -0.136009  0.013045
			 0.043002 -0.137776  0.010688
			 0.042888 -0.136910  0.010758
			 0.036911 -0.134389  0.012407
			 0.036118 -0.132912  0.012919
			 0.023192 -0.125345  0.016178
			 0.023729 -0.125172  0.022051
			 0.023069 -0.125485  0.017194
			 0.032366 -0.129006  0.012949
			 0.023758 -0.123968  0.013874
			 0.025194 -0.123587  0.012764
			 0.027855 -0.125136  0.012906
			 0.029730 -0.125868  0.013123
			 0.026859 -0.126945  0.022644
			 0.029394 -0.126380  0.023327
			 0.032069 -0.128930  0.021395
			 0.037214 -0.133794  0.012774
			 0.039759 -0.134390  0.011459
			 0.040673 -0.135338  0.010596
			 0.041911 -0.136207  0.010313
			 0.037863 -0.133703  0.013908
			 0.040938 -0.134589  0.013224
			 0.032584 -0.128162  0.020631
			 0.042576 -0.136063  0.010860
			 0.040782 -0.134714  0.011260
			 0.021866 -0.123457  0.016809
			 0.021872 -0.123914  0.019432
			 0.026037 -0.125655  0.024230
			 0.023647 -0.123964  0.022700
			 0.024325 -0.123920  0.024068
			 0.030616 -0.124963  0.022277
			 0.029884 -0.124086  0.016269
			 0.024217 -0.122161  0.013064
			 0.022950 -0.123044  0.014633
			 0.026190 -0.122688  0.012640
			 0.028873 -0.124443  0.013266
			 0.027405 -0.125067  0.024903
			 0.028188 -0.123019  0.025385
			 0.029227 -0.122549  0.024662
			 0.023447 -0.122947  0.015449
			 0.023720 -0.123550  0.019362
			 0.026594 -0.123906  0.025499
			 0.025147 -0.123227  0.024959
			 0.027220 -0.120480  0.023270
			 0.026523 -0.121628  0.024931
			 0.026643 -0.121577  0.019505
			 0.025784 -0.122559  0.019551
			 0.027133 -0.121149  0.020641
			 0.025065 -0.122853  0.024399
			 0.024840 -0.123065  0.019230
			 0.029032 -0.120408  0.022895
			 0.028407 -0.121152  0.014380
			 0.024907 -0.120982  0.013500
			 0.025757 -0.121649  0.016179
			 0.027384 -0.121639  0.013215
			 0.027085 -0.122964  0.025664
			 0.026877 -0.122341  0.025747
			 0.028512 -0.121302  0.024648
			 0.024612 -0.123285  0.018206
			 0.025941 -0.122145  0.017869
			 0.026060 -0.122631  0.025662
			 0.027736 -0.119504  0.022474
			 0.027616 -0.120130  0.023711
			 0.027188 -0.120404  0.024349
			 0.027091 -0.120373  0.020115
			 0.025991 -0.122011  0.019083
			 0.026795 -0.120084  0.019129
			 0.026528 -0.121576  0.018695
			 0.025648 -0.122631  0.018709
			 0.027420 -0.119146  0.020831
			 0.026287 -0.120230  0.013958
			 0.026624 -0.119476  0.015273
			 0.025782 -0.119954  0.014289
			 0.026466 -0.119873  0.015941
			 0.026724 -0.121108  0.017877
		</DataArray>
	</Points>
			<Polys>
				<DataArray type="Int32" Name="connectivity" format="ascii">
					0 1 2 
					3 1 0 
					0 4 3 
					5 0 2 
					0 5 6 
					7 0 6 
					7 8 0 
					4 0 8 
					9 2 1 
					3 9 1 
					10 2 11 
					11 2 9 
					5 2 10 
					3 12 9 
					13 3 4 
					13 12 3 
					14 4 8 
					14 15 4 
					15 13 4 
					16 5 17 
					17 5 10 
					16 6 5 
					18 6 16 
					6 18 7 
					19 8 7 
					7 20 21 
					21 22 7 
					22 19 7 
					18 20 7 
					23 8 19 
					8 23 14 
					12 24 9 
					25 26 9 
					26 11 9 
					9 27 25 
					9 28 27 
					28 9 24 
					29 30 10 
					17 10 31 
					31 10 30 
					11 29 10 
					29 11 32 
					32 11 26 
					33 12 13 
					33 24 12 
					34 33 13 
					13 15 34 
					15 14 35 
					35 14 23 
					34 15 36 
					15 37 36 
					15 35 37 
					38 39 16 
					16 17 40 
					41 16 40 
					38 16 42 
					43 42 16 
					43 16 41 
					18 16 39 
					17 44 40 
					31 45 17 
					45 46 17 
					44 17 46 
					47 20 18 
					18 39 47 
					19 48 23 
					19 22 48 
					20 47 21 
					21 47 49 
					50 21 49 
					50 22 21 
					50 51 22 
					22 51 48 
					35 23 48 
					33 28 24 
					26 25 27 
					26 27 32 
					27 28 52 
					27 52 32 
					53 52 28 
					28 33 53 
					29 54 30 
					29 32 54 
					55 56 30 
					55 30 54 
					56 57 30 
					30 57 31 
					45 31 57 
					54 32 58 
					52 58 32 
					34 53 33 
					53 34 36 
					37 35 48 
					58 52 36 
					37 59 36 
					36 59 58 
					53 36 52 
					60 61 37 
					37 61 59 
					60 37 48 
					38 62 39 
					63 62 38 
					38 42 63 
					62 47 39 
					41 40 64 
					65 66 40 
					44 65 40 
					40 66 64 
					41 64 43 
					67 63 42 
					43 67 42 
					68 43 64 
					69 43 68 
					43 69 70 
					43 70 71 
					43 71 67 
					72 44 73 
					73 44 46 
					72 65 44 
					45 57 46 
					57 74 46 
					74 73 46 
					75 76 47 
					75 47 62 
					77 49 47 
					76 77 47 
					51 60 48 
					50 49 77 
					78 50 77 
					78 51 50 
					78 61 51 
					60 51 61 
					79 55 54 
					54 58 80 
					80 79 54 
					63 67 55 
					55 79 63 
					55 67 81 
					56 55 81 
					81 74 56 
					56 74 57 
					80 58 59 
					59 61 82 
					82 83 59 
					83 80 59 
					78 82 61 
					63 75 62 
					75 63 79 
					84 64 66 
					68 64 84 
					66 65 85 
					72 86 65 
					65 87 85 
					88 87 65 
					88 65 86 
					66 85 84 
					81 67 89 
					90 67 71 
					67 90 89 
					91 68 92 
					84 92 68 
					91 69 68 
					93 70 69 
					69 91 93 
					70 93 94 
					94 71 70 
					94 90 71 
					86 72 95 
					73 95 72 
					95 73 96 
					73 74 81 
					81 89 73 
					97 73 89 
					96 73 97 
					79 80 75 
					76 75 80 
					76 83 77 
					83 76 80 
					78 77 82 
					83 82 77 
					85 98 84 
					98 92 84 
					87 99 85 
					98 85 99 
					100 88 86 
					95 100 86 
					101 87 88 
					102 87 103 
					104 105 87 
					106 104 87 
					107 87 101 
					103 87 107 
					108 99 87 
					102 106 87 
					108 87 105 
					88 100 101 
					109 89 90 
					97 89 109 
					110 109 90 
					110 90 94 
					111 93 91 
					112 111 91 
					92 112 91 
					112 92 98 
					113 94 93 
					111 113 93 
					113 110 94 
					100 95 96 
					114 96 115 
					100 96 114 
					115 96 97 
					109 116 97 
					115 97 116 
					117 98 99 
					118 98 117 
					118 112 98 
					108 117 99 
					114 119 100 
					100 119 101 
					101 119 107 
					120 102 121 
					122 121 102 
					102 103 122 
					106 102 120 
					103 107 119 
					119 115 103 
					115 122 103 
					106 123 104 
					105 104 124 
					123 125 104 
					126 104 125 
					104 126 124 
					117 108 105 
					105 127 117 
					127 105 124 
					128 123 106 
					120 128 106 
					110 128 109 
					120 109 128 
					116 109 121 
					120 121 109 
					129 110 113 
					110 129 130 
					110 130 128 
					111 131 129 
					129 113 111 
					131 111 112 
					132 130 112 
					130 131 112 
					132 112 133 
					133 112 118 
					115 119 114 
					115 116 122 
					121 122 116 
					118 117 127 
					126 133 118 
					118 127 124 
					126 118 124 
					128 125 123 
					128 132 125 
					132 133 125 
					125 133 126 
					128 130 132 
					130 129 131 
				</DataArray>
				<DataArray type="Int32" Name="offsets" format="ascii">
					3 6 9 12 15 18 21 24 27 30 33 36 39 42 45 48 51 54 57 60 63 66 69 72 75 78 81 84 87 90 93 96 99 102 105 108 111 114 117 120 123 126 129 132 135 138 141 144 147 150 153 156 159 162 165 168 171 174 177 180 183 186 189 192 195 198 201 204 207 210 213 216 219 222 225 228 231 234 237 240 243 246 249 252 255 258 261 264 267 270 273 276 279 282 285 288 291 294 297 300 303 306 309 312 315 318 321 324 327 330 333 336 339 342 345 348 351 354 357 360 363 366 369 372 375 378 381 384 387 390 393 396 399 402 405 408 411 414 417 420 423 426 429 432 435 438 441 444 447 450 453 456 459 462 465 468 471 474 477 480 483 486 489 492 495 498 501 504 507 510 513 516 519 522 525 528 531 534 537 540 543 546 549 552 555 558 561 564 567 570 573 576 579 582 585 588 591 594 597 600 603 606 609 612 615 618 621 624 627 630 633 636 639 642 645 648 651 654 657 660 663 666 669 672 675 678 681 684 687 690 693 696 699 702 705 708 711 714 717 720 723 726 729 732 735 738 741 744 747 750 753 756 759 762 765 768 771 774 777 780 783 786 789 792 
				</DataArray>
			</Polys>
		</Piece>
	</PolyData>
</VTKFile>
