<?xml version="1.0"?>
<VTKFile type="PolyData" version="0.1" byte_order="LittleEndian" compressor="vtkZLibDataCompressor">
	<PolyData>
		<Piece NumberOfPoints="120" NumberOfVerts="0" NumberOfLines="0" NumberOfStrips="0" NumberOfPolys="236">
		<PointData Normals="Normals">
		<DataArray type="Float32" Name="Normals" NumberOfComponents="3" format="ascii">
			-0.511522 -0.714242  0.477707
			-0.678774 -0.732468 -0.052498
			-0.089709 -0.991701 -0.092094
			-0.566062 -0.531120  0.630464
			-0.383258 -0.466683  0.797070
			-0.688771 -0.667523  0.282857
			 0.023878 -0.387594  0.921521
			-0.290549 -0.775669  0.560285
			-0.578113 -0.740468 -0.342771
			-0.698489 -0.705800 -0.118149
			 0.113149 -0.867217  0.484903
			 0.138201 -0.975905 -0.168847
			 0.815658 -0.573761 -0.074166
			 0.869330 -0.491733 -0.049641
			-0.562962 -0.654203  0.505066
			-0.357937 -0.230121  0.904945
			-0.290447  0.036779  0.956184
			-0.655415 -0.734352 -0.176516
			 0.479185 -0.617159  0.624097
			 0.674301 -0.228438  0.702235
			 0.320860  0.126627  0.938624
			-0.035604  0.068442  0.997020
			 0.767150  0.404022  0.498244
			 0.098520 -0.788687 -0.606850
			-0.683311 -0.585512 -0.436190
			-0.656070 -0.332785 -0.677368
			-0.341459 -0.347911 -0.873134
			 0.912614  0.408661 -0.011486
			 0.996887  0.078653 -0.005477
			 0.713342 -0.476799 -0.513620
			 0.970876  0.011786  0.239294
			 0.967266  0.202626 -0.152771
			-0.473072 -0.803431  0.361526
			-0.291527 -0.635171  0.715241
			-0.199885 -0.442341  0.874289
			 0.029502  0.632577  0.773935
			 0.588324  0.495718  0.638857
			-0.030424  0.812435  0.582257
			-0.367661 -0.253124 -0.894849
			-0.603919 -0.795304 -0.052667
			-0.581025 -0.692303 -0.427933
			-0.315431 -0.393072 -0.863711
			 0.419520  0.723229  0.548583
			 0.819621  0.572185 -0.028741
			 0.576232  0.817241 -0.008567
			 0.211711 -0.018388 -0.977159
			-0.480904 -0.243109 -0.842395
			-0.530596  0.088247 -0.843018
			-0.408874  0.025209 -0.912243
			-0.304972 -0.141113 -0.941849
			 0.776488  0.627992  0.051896
			 0.569981  0.819310  0.062073
			 0.850781  0.032043 -0.524542
			 0.796361  0.398558 -0.454929
			-0.020571 -0.561926  0.826932
			-0.378867 -0.688089  0.618864
			 0.096619 -0.547078  0.831487
			-0.635580 -0.727006  0.259807
			 0.217312 -0.194922  0.956442
			 0.261288  0.929144  0.261572
			 0.536157  0.518584 -0.666038
			 0.825042  0.560581 -0.071096
			 0.411212  0.911059 -0.029603
			 0.735503  0.392457  0.552280
			-0.098506  0.334300 -0.937305
			 0.233623  0.411759 -0.880838
			-0.670652 -0.718936 -0.182639
			-0.628880 -0.486685 -0.606340
			-0.262897 -0.232834 -0.936308
			 0.128171  0.027409 -0.991373
			 0.224841  0.323170 -0.919243
			-0.224376  0.621171 -0.750867
			 0.120112  0.801865 -0.585309
			-0.156501  0.325250 -0.932588
			 0.053109  0.471774 -0.880119
			 0.581976  0.678728 -0.447920
			 0.294485  0.905265 -0.306225
			 0.606236 -0.104394  0.788404
			 0.476706 -0.045370  0.877891
			-0.869330  0.317034  0.379150
			-0.139720 -0.396569  0.907310
			 0.391794 -0.108276  0.913659
			-0.910693 -0.370033  0.183615
			-0.682559  0.663859  0.305622
			 0.633442  0.427155 -0.645205
			 0.677025  0.654921 -0.335731
			 0.713354  0.670076  0.205243
			 0.877324  0.356419  0.321354
			-0.666646  0.743333  0.055122
			-0.924856  0.102304 -0.366299
			-0.735843  0.408838 -0.539802
			-0.823906  0.477808 -0.304760
			 0.020553  0.226304 -0.973840
			 0.313879  0.456441 -0.832551
			 0.713184  0.252775  0.653815
			-0.860042  0.509897  0.018257
			-0.600216  0.584116  0.546397
			-0.956227  0.274198  0.102204
			-0.882771  0.414941  0.220315
			-0.370505  0.135140  0.918947
			-0.470761  0.881313  0.040890
			-0.711892  0.693600  0.110134
			 0.006568  0.172572  0.984975
			 0.203248  0.360247  0.910446
			-0.460716  0.876817  0.137595
			-0.206115  0.874993 -0.438069
			-0.795648  0.605225 -0.025425
			-0.633994  0.732698  0.247397
			 0.463302  0.614432  0.638611
			-0.583031  0.759275  0.289094
			-0.072463  0.903259  0.422933
			-0.398421  0.899816  0.177743
			-0.440578  0.706252 -0.554165
			-0.795430  0.555354  0.242637
			-0.339556  0.692204  0.636832
			-0.944530  0.012506  0.328187
			-0.809074  0.559174  0.180898
			-0.974745  0.017878  0.222606
			-0.913783  0.379929  0.143718
			-0.814219  0.565805  0.130047
		</DataArray>
	</PointData>
	<Points>
		<DataArray type="Float32" NumberOfComponents="3" format="ascii">
			 0.031547 -0.112251 -0.045774
			 0.030906 -0.111724 -0.046719
			 0.033384 -0.113430 -0.046929
			 0.030091 -0.110211 -0.045145
			 0.030553 -0.110215 -0.044688
			 0.029985 -0.110611 -0.045603
			 0.034343 -0.110799 -0.044425
			 0.033132 -0.113203 -0.045935
			 0.032556 -0.112318 -0.051070
			 0.029923 -0.110544 -0.047012
			 0.033701 -0.113297 -0.045882
			 0.033290 -0.113002 -0.048849
			 0.034730 -0.112038 -0.048507
			 0.035028 -0.112689 -0.046251
			 0.028352 -0.108582 -0.045321
			 0.029851 -0.109287 -0.044698
			 0.030905 -0.109261 -0.044227
			 0.026151 -0.107343 -0.048065
			 0.034661 -0.112731 -0.045510
			 0.034822 -0.111879 -0.044982
			 0.033341 -0.109915 -0.044109
			 0.032012 -0.109361 -0.044005
			 0.034683 -0.110225 -0.044910
			 0.033591 -0.112680 -0.051344
			 0.029788 -0.109707 -0.049626
			 0.030514 -0.110069 -0.050694
			 0.033123 -0.111996 -0.051645
			 0.034600 -0.110472 -0.048188
			 0.035137 -0.110914 -0.049886
			 0.034478 -0.112063 -0.051550
			 0.035219 -0.111331 -0.045492
			 0.034999 -0.110567 -0.046674
			 0.023801 -0.104851 -0.044249
			 0.026191 -0.106102 -0.043915
			 0.028618 -0.108265 -0.044723
			 0.030401 -0.108480 -0.044928
			 0.029354 -0.107576 -0.044609
			 0.031404 -0.108383 -0.044599
			 0.026589 -0.106486 -0.049550
			 0.022455 -0.104133 -0.047608
			 0.021730 -0.103323 -0.048203
			 0.020694 -0.101411 -0.049291
			 0.033310 -0.109100 -0.044366
			 0.034782 -0.110065 -0.046387
			 0.033488 -0.108983 -0.046086
			 0.034338 -0.110663 -0.051907
			 0.029500 -0.108792 -0.050212
			 0.030364 -0.108927 -0.050812
			 0.031157 -0.109392 -0.051284
			 0.031311 -0.110395 -0.051128
			 0.034498 -0.109552 -0.049628
			 0.033194 -0.108941 -0.047808
			 0.034831 -0.110902 -0.051545
			 0.034630 -0.110218 -0.051473
			 0.024440 -0.104325 -0.042895
			 0.020002 -0.101340 -0.040567
			 0.020997 -0.100911 -0.040011
			 0.017999 -0.100751 -0.042263
			 0.027768 -0.106547 -0.044091
			 0.030528 -0.108046 -0.046048
			 0.023217 -0.101677 -0.049451
			 0.023749 -0.101178 -0.044723
			 0.029924 -0.107448 -0.048745
			 0.025445 -0.103350 -0.043461
			 0.029290 -0.107964 -0.050020
			 0.028822 -0.107000 -0.049700
			 0.017661 -0.101020 -0.046200
			 0.018003 -0.099767 -0.048821
			 0.019078 -0.099467 -0.049694
			 0.022052 -0.100962 -0.049501
			 0.033776 -0.109639 -0.051820
			 0.031092 -0.108065 -0.050751
			 0.029792 -0.107710 -0.049828
			 0.031725 -0.108808 -0.051394
			 0.032696 -0.108939 -0.051582
			 0.034277 -0.109547 -0.051377
			 0.032701 -0.108462 -0.051039
			 0.022709 -0.101271 -0.041053
			 0.025142 -0.103962 -0.042868
			 0.018440 -0.099941 -0.040670
			 0.020213 -0.099994 -0.039516
			 0.021345 -0.099317 -0.039583
			 0.016517 -0.099801 -0.044385
			 0.017325 -0.099998 -0.042567
			 0.022064 -0.100211 -0.049293
			 0.021276 -0.097629 -0.048342
			 0.021669 -0.097220 -0.041519
			 0.023495 -0.100827 -0.042094
			 0.016458 -0.099393 -0.046474
			 0.016657 -0.099386 -0.047116
			 0.018130 -0.098333 -0.049431
			 0.017253 -0.099041 -0.048201
			 0.019740 -0.098771 -0.049771
			 0.020539 -0.097974 -0.049287
			 0.022097 -0.098948 -0.040147
			 0.020261 -0.097256 -0.041229
			 0.019863 -0.098184 -0.039927
			 0.020279 -0.097730 -0.043343
			 0.019951 -0.098038 -0.044262
			 0.019631 -0.098983 -0.039364
			 0.018733 -0.099179 -0.044518
			 0.019406 -0.098800 -0.044248
			 0.020476 -0.099261 -0.039364
			 0.020730 -0.098559 -0.039505
			 0.018583 -0.099328 -0.045342
			 0.019499 -0.096860 -0.048670
			 0.019665 -0.096296 -0.047604
			 0.020246 -0.096158 -0.043152
			 0.021377 -0.097952 -0.040138
			 0.020539 -0.096478 -0.041844
			 0.020526 -0.096995 -0.040868
			 0.018057 -0.098924 -0.047232
			 0.018517 -0.097422 -0.049057
			 0.019428 -0.098141 -0.046511
			 0.020226 -0.097217 -0.040365
			 0.020110 -0.097601 -0.043979
			 0.019497 -0.098362 -0.044610
			 0.019880 -0.097122 -0.044489
			 0.019861 -0.098019 -0.044910
			 0.019309 -0.098838 -0.044923
		</DataArray>
	</Points>
			<Polys>
				<DataArray type="Int32" Name="connectivity" format="ascii">
					0 1 2 
					3 0 4 
					0 5 1 
					6 0 7 
					4 0 6 
					2 7 0 
					5 0 3 
					2 1 8 
					8 1 9 
					5 9 1 
					2 10 7 
					11 2 8 
					11 12 2 
					12 13 2 
					13 10 2 
					14 3 15 
					4 15 3 
					5 3 14 
					15 4 16 
					16 4 6 
					17 9 5 
					5 14 17 
					7 10 6 
					10 18 6 
					18 19 6 
					20 21 6 
					21 16 6 
					6 22 20 
					22 6 19 
					8 23 11 
					9 24 8 
					25 8 24 
					26 8 25 
					26 23 8 
					17 24 9 
					13 18 10 
					12 11 23 
					13 12 27 
					12 28 27 
					28 12 29 
					12 23 29 
					30 18 13 
					30 13 31 
					31 13 27 
					32 14 33 
					32 17 14 
					15 34 14 
					34 33 14 
					35 36 15 
					34 15 36 
					16 35 15 
					37 16 21 
					35 16 37 
					24 17 38 
					17 32 39 
					40 17 39 
					38 17 41 
					17 40 41 
					30 19 18 
					30 22 19 
					21 20 42 
					20 22 42 
					21 42 37 
					43 44 22 
					22 30 43 
					42 22 44 
					23 45 29 
					26 45 23 
					38 46 24 
					47 25 24 
					24 46 47 
					48 49 25 
					48 25 47 
					49 26 25 
					49 45 26 
					28 50 27 
					27 50 51 
					43 27 44 
					27 51 44 
					43 31 27 
					52 53 28 
					28 53 50 
					52 28 29 
					52 29 45 
					31 43 30 
					54 32 33 
					55 32 56 
					56 32 54 
					32 55 57 
					39 32 57 
					33 34 58 
					33 58 54 
					36 58 34 
					35 59 36 
					35 37 59 
					36 60 61 
					62 60 36 
					36 59 62 
					36 61 63 
					63 58 36 
					62 37 42 
					62 59 37 
					38 64 46 
					41 65 38 
					38 65 64 
					66 40 39 
					57 66 39 
					67 40 66 
					41 40 67 
					41 67 68 
					41 68 69 
					41 69 60 
					60 65 41 
					42 44 62 
					44 51 62 
					45 49 70 
					70 53 45 
					52 45 53 
					64 47 46 
					71 48 47 
					72 71 47 
					72 47 64 
					48 71 73 
					49 48 73 
					74 49 73 
					70 49 74 
					50 53 75 
					75 76 50 
					76 51 50 
					62 51 76 
					70 75 53 
					56 54 77 
					78 77 54 
					58 78 54 
					79 57 55 
					79 55 80 
					55 56 80 
					80 56 81 
					56 77 81 
					66 57 82 
					57 83 82 
					83 57 79 
					63 78 58 
					84 60 69 
					65 60 62 
					60 84 61 
					61 84 85 
					86 61 85 
					61 87 63 
					86 87 61 
					62 76 72 
					72 65 62 
					77 78 63 
					63 87 77 
					65 72 64 
					66 82 88 
					89 67 66 
					89 66 88 
					90 67 91 
					89 91 67 
					90 68 67 
					68 90 92 
					69 68 92 
					69 93 84 
					69 92 93 
					70 74 75 
					71 76 73 
					71 72 76 
					76 74 73 
					76 75 74 
					94 77 87 
					81 77 94 
					95 79 96 
					79 97 98 
					96 79 99 
					79 80 99 
					100 83 79 
					97 79 95 
					100 79 101 
					98 101 79 
					102 99 80 
					80 81 102 
					102 81 103 
					103 81 94 
					82 83 88 
					83 104 88 
					100 104 83 
					85 84 93 
					105 85 93 
					85 105 106 
					106 107 85 
					85 107 86 
					86 108 94 
					109 86 107 
					94 87 86 
					108 86 110 
					109 110 86 
					88 111 89 
					104 111 88 
					111 91 89 
					92 90 112 
					111 90 91 
					111 113 90 
					113 112 90 
					112 93 92 
					105 93 112 
					103 94 108 
					109 97 95 
					109 95 110 
					114 110 95 
					95 96 114 
					99 102 96 
					102 114 96 
					97 115 98 
					109 107 97 
					115 97 107 
					101 98 116 
					115 117 98 
					118 98 117 
					98 118 116 
					104 100 101 
					101 119 104 
					119 101 116 
					102 103 114 
					103 108 114 
					113 111 104 
					113 104 119 
					106 105 113 
					105 112 113 
					107 106 117 
					106 113 118 
					117 106 118 
					115 107 117 
					110 114 108 
					113 119 116 
					118 113 116 
				</DataArray>
				<DataArray type="Int32" Name="offsets" format="ascii">
					3 6 9 12 15 18 21 24 27 30 33 36 39 42 45 48 51 54 57 60 63 66 69 72 75 78 81 84 87 90 93 96 99 102 105 108 111 114 117 120 123 126 129 132 135 138 141 144 147 150 153 156 159 162 165 168 171 174 177 180 183 186 189 192 195 198 201 204 207 210 213 216 219 222 225 228 231 234 237 240 243 246 249 252 255 258 261 264 267 270 273 276 279 282 285 288 291 294 297 300 303 306 309 312 315 318 321 324 327 330 333 336 339 342 345 348 351 354 357 360 363 366 369 372 375 378 381 384 387 390 393 396 399 402 405 408 411 414 417 420 423 426 429 432 435 438 441 444 447 450 453 456 459 462 465 468 471 474 477 480 483 486 489 492 495 498 501 504 507 510 513 516 519 522 525 528 531 534 537 540 543 546 549 552 555 558 561 564 567 570 573 576 579 582 585 588 591 594 597 600 603 606 609 612 615 618 621 624 627 630 633 636 639 642 645 648 651 654 657 660 663 666 669 672 675 678 681 684 687 690 693 696 699 702 705 708 
				</DataArray>
			</Polys>
		</Piece>
	</PolyData>
</VTKFile>
