<?xml version="1.0" encoding="utf-8"?>
<VTKFile byte_order="LittleEndian" compressor="vtkZLibDataCompressor" type="PolyData" version="0.1">
  
   <PolyData>
    
      <Piece NumberOfLines="0" NumberOfPoints="200" NumberOfPolys="60" NumberOfStrips="0" NumberOfVerts="0">
      
         <PointData Normals="Normals">
        
            <DataArray Name="Normals" NumberOfComponents="3" format="ascii" type="Float32">0 -1 0 0 -1 0 0 -1 0 0 -1 0 0 -1 0 0 -1 0 0 -1 0 0 -1 0 0 -1 0 0 -1 0 0 -1 0 0 -1 0 0 -1 0 0 -1 0 0 -1 0 0 -1 0 0 -1 0 0 -1 0 0 -1 0 0 -1 0 0 -1 0 0 -1 0 0 -1 0 0 -1 0 0 -1 0 0 -1 0 0 -1 0 0 -1 0 0 -1 0 0 -1 0 0 -1 0 0 -1 0 0 -1 0 0 -1 0 0 -1 0 0 -1 0 0 -1 0 0 -1 0 0 -1 0 0 -1 0 0 -1 0 0 -1 0 0 -1 0 0 -1 0 0 -1 0 0 -1 0 0 -1 0 0 -1 0 0 -1 0 0 -1 0 0 -1 0 0 -1 0 0 -1 0 0 -1 0 0 -1 0 0 -1 0 0 -1 0 0 -1 0 0 -1 0 0 -1 0 0 -1 0 0 -1 0 0 -1 0 0 -1 0 0 -1 0 0 -1 0 0 -1 0 0 -1 0 0 -1 0 0 -1 0 0 -1 0 0 -1 0 0 -1 0 0 -1 0 0 -1 0 0 -1 0 0 -1 0 0 -1 0 0 -1 0 0 -1 0 0 -1 0 0 -1 0 0 -1 0 0 -1 0 0 -1 0 0 -1 0 0 -1 0 0 -1 0 0 -1 0 0 -1 0 0 -1 0 0 -1 0 0 -1 0 0 -1 0 0 -1 0 0 -1 0 0 -1 0 0 -1 0 0 -1 0 0 -1 0 0 -1 0 0 -1 0 0 -1 0 0 -1 0 0 -1 0 0 -1 0 0 -1 0 0 -1 0 0 -1 0 0 -1 0 0 -1 0 0 -1 0 0 -1 0 0 -1 0 0 -1 0 0 -1 0 0 -1 0 0 -1 0 0 -1 0 0 -1 0 0 -1 0 0 -1 0 0 -1 0 0 -1 0 0 -1 0 0 -1 0 0 -1 0 0 -1 0 0 -1 0 0 -1 0 0 -1 0 0 -1 0 0 -1 0 0 -1 0 0 -1 0 0 -1 0 0 -1 0 0 -1 0 0 -1 0 0 -1 0 0 -1 0 0 -1 0 0 -1 0 0 -1 0 0 -1 0 0 -1 0 0 -1 0 0 -1 0 0 -1 0 0 -1 0 0 -1 0 0 -1 0 0 -1 0 0 -1 0 0 -1 0 0 -1 0 0 -1 0 0 -1 0 0 -1 0 0 -1 0 0 -1 0 0 -1 0 0 -1 0 0 -1 0 0 -1 0 0 -1 0 0 -1 0 0 -1 0 0 -1 0 0 -1 0 0 -1 0 0 -1 0 0 -1 0 0 -1 0 0 -1 0 0 -1 0 0 -1 0 0 -1 0 0 -1 0 0 -1 0 0 -1 0 0 -1 0 0 -1 0 0 -1 0 0 -1 0 0 -1 0 0 -1 0 0 -1 0 0 -1 0 0 -1 0 0 -1 0 0 -1 0 0 -1 0 0 -1 0 0 -1 0 0 -1 0 0 -1 0 0 -1 0 0 -1 0 0 -1 0</DataArray>
      
         </PointData>
      
         <CellData>
      
         </CellData>
      
         <Points>
        
            <DataArray NumberOfComponents="3" format="ascii" type="Float32">-0.3 0 0.5 -0.3 0 0.4 -0.2 0 0.5 -0.2 0 0.4 -0.2 0 0.5 -0.2 0 0.4 -0.1 0 0.5 -0.1 0 0.4 -0.1 0 0.5 -0.1 0 0.4 5.55112e-017 0 0.5 5.55112e-017 0 0.4 5.55112e-017 0 0.5 5.55112e-017 0 0.4 0.1 0 0.5 0.1 0 0.4 0.1 0 0.5 0.1 0 0.4 0.2 0 0.5 0.2 0 0.4 -0.2 0 0.4 -0.2 0 0.3 -0.1 0 0.4 -0.1 0 0.3 -0.1 0 0.4 -0.1 0 0.3 5.55112e-017 0 0.4 5.55112e-017 0 0.3 5.55112e-017 0 0.4 5.55112e-017 0 0.3 0.1 0 0.4 0.1 0 0.3 0.1 0 0.4 0.1 0 0.3 0.2 0 0.4 0.2 0 0.3 0.2 0 0.4 0.2 0 0.3 0.3 0 0.4 0.3 0 0.3 -0.3 0 0.3 -0.3 0 0.2 -0.2 0 0.3 -0.2 0 0.2 -0.2 0 0.3 -0.2 0 0.2 -0.1 0 0.3 -0.1 0 0.2 -0.1 0 0.3 -0.1 0 0.2 5.55112e-017 0 0.3 5.55112e-017 0 0.2 5.55112e-017 0 0.3 5.55112e-017 0 0.2 0.1 0 0.3 0.1 0 0.2 0.1 0 0.3 0.1 0 0.2 0.2 0 0.3 0.2 0 0.2 -0.2 0 0.2 -0.2 0 0.1 -0.1 0 0.2 -0.1 0 0.1 -0.1 0 0.2 -0.1 0 0.1 5.55112e-017 0 0.2 5.55112e-017 0 0.1 5.55112e-017 0 0.2 5.55112e-017 0 0.1 0.1 0 0.2 0.1 0 0.1 0.1 0 0.2 0.1 0 0.1 0.2 0 0.2 0.2 0 0.1 0.2 0 0.2 0.2 0 0.1 0.3 0 0.2 0.3 0 0.1 -0.3 0 0.1 -0.3 0 0 -0.2 0 0.1 -0.2 0 0 -0.2 0 0.1 -0.2 0 0 -0.1 0 0.1 -0.1 0 0 -0.1 0 0.1 -0.1 0 0 5.55112e-017 0 0.1 5.55112e-017 0 0 5.55112e-017 0 0.1 5.55112e-017 0 0 0.1 0 0.1 0.1 0 0 0.1 0 0.1 0.1 0 0 0.2 0 0.1 0.2 0 0 -0.2 0 0 -0.2 0 -0.1 -0.1 0 0 -0.1 0 -0.1 -0.1 0 0 -0.1 0 -0.1 5.55112e-017 0 0 5.55112e-017 0 -0.1 5.55112e-017 0 0 5.55112e-017 0 -0.1 0.1 0 0 0.1 0 -0.1 0.1 0 0 0.1 0 -0.1 0.2 0 0 0.2 0 -0.1 0.2 0 0 0.2 0 -0.1 0.3 0 0 0.3 0 -0.1 -0.3 0 -0.1 -0.3 0 -0.2 -0.2 0 -0.1 -0.2 0 -0.2 -0.2 0 -0.1 -0.2 0 -0.2 -0.1 0 -0.1 -0.1 0 -0.2 -0.1 0 -0.1 -0.1 0 -0.2 5.55112e-017 0 -0.1 5.55112e-017 0 -0.2 5.55112e-017 0 -0.1 5.55112e-017 0 -0.2 0.1 0 -0.1 0.1 0 -0.2 0.1 0 -0.1 0.1 0 -0.2 0.2 0 -0.1 0.2 0 -0.2 -0.2 0 -0.2 -0.2 0 -0.3 -0.1 0 -0.2 -0.1 0 -0.3 -0.1 0 -0.2 -0.1 0 -0.3 5.55112e-017 0 -0.2 5.55112e-017 0 -0.3 5.55112e-017 0 -0.2 5.55112e-017 0 -0.3 0.1 0 -0.2 0.1 0 -0.3 0.1 0 -0.2 0.1 0 -0.3 0.2 0 -0.2 0.2 0 -0.3 0.2 0 -0.2 0.2 0 -0.3 0.3 0 -0.2 0.3 0 -0.3 -0.3 0 -0.3 -0.3 0 -0.4 -0.2 0 -0.3 -0.2 0 -0.4 -0.2 0 -0.3 -0.2 0 -0.4 -0.1 0 -0.3 -0.1 0 -0.4 -0.1 0 -0.3 -0.1 0 -0.4 5.55112e-017 0 -0.3 5.55112e-017 0 -0.4 5.55112e-017 0 -0.3 5.55112e-017 0 -0.4 0.1 0 -0.3 0.1 0 -0.4 0.1 0 -0.3 0.1 0 -0.4 0.2 0 -0.3 0.2 0 -0.4 -0.2 0 -0.4 -0.2 0 -0.5 -0.1 0 -0.4 -0.1 0 -0.5 -0.1 0 -0.4 -0.1 0 -0.5 5.55112e-017 0 -0.4 5.55112e-017 0 -0.5 5.55112e-017 0 -0.4 5.55112e-017 0 -0.5 0.1 0 -0.4 0.1 0 -0.5 0.1 0 -0.4 0.1 0 -0.5 0.2 0 -0.4 0.2 0 -0.5 0.2 0 -0.4 0.2 0 -0.5 0.3 0 -0.4 0.3 0 -0.5</DataArray>
      
         </Points>
      
         <Verts>
        
            <DataArray Name="connectivity" format="ascii" type="Int32">
        
            </DataArray>
        
            <DataArray Name="offsets" format="ascii" type="Int32">
        
            </DataArray>
      
         </Verts>
      
         <Lines>
        
            <DataArray Name="connectivity" format="ascii" type="Int32">
        
            </DataArray>
        
            <DataArray Name="offsets" format="ascii" type="Int32">
        
            </DataArray>
      
         </Lines>
      
         <Strips>
        
            <DataArray Name="connectivity" format="ascii" type="Int32">
        
            </DataArray>
        
            <DataArray Name="offsets" format="ascii" type="Int32">
        
            </DataArray>
      
         </Strips>
      
         <Polys>
        
            <DataArray Name="connectivity" format="ascii" type="Int32">3 0 1 3 2 0 11 8 9 11 10 8 19 16 17 19 18 16 23 20 21 23 22 20 31 28 29 31 30 28 39 36 37 39 38 36 43 40 41 43 42 40 51 48 49 51 50 48 59 56 57 59 58 56 63 60 61 63 62 60 71 68 69 71 70 68 79 76 77 79 78 76 83 80 81 83 82 80 91 88 89 91 90 88 99 96 97 99 98 96 103 100 101 103 102 100 111 108 109 111 110 108 119 116 117 119 118 116 123 120 121 123 122 120 131 128 129 131 130 128 139 136 137 139 138 136 143 140 141 143 142 140 151 148 149 151 150 148 159 156 157 159 158 156 163 160 161 163 162 160 171 168 169 171 170 168 179 176 177 179 178 176 183 180 181 183 182 180 191 188 189 191 190 188 199 196 197 199 198 196</DataArray>
        
            <DataArray Name="offsets" format="ascii" type="Int32">3 6 9 12 15 18 21 24 27 30 33 36 39 42 45 48 51 54 57 60 63 66 69 72 75 78 81 84 87 90 93 96 99 102 105 108 111 114 117 120 123 126 129 132 135 138 141 144 147 150 153 156 159 162 165 168 171 174 177 180</DataArray>
      
         </Polys>
    
      </Piece>
  
   </PolyData>

</VTKFile>