<?xml version="1.0"?>
<VTKFile type="PolyData" version="0.1" byte_order="LittleEndian" compressor="vtkZLibDataCompressor">
  <PolyData>
    <Piece NumberOfPoints="800" NumberOfVerts="0" NumberOfLines="0" NumberOfStrips="0" NumberOfPolys="1360">
      <PointData Normals="Normals">
        <DataArray type="Float32" Name="Normals" NumberOfComponents="3" format="ascii" RangeMin="0.99999996432" RangeMax="1.0000000369">
          -1.2246063538e-016 -1.2246063538e-016 -1 -1 -5.3529245352e-024 -4.3711388287e-008
          -0.98480772972 -2.1265071506e-017 -0.17364822328 -0.93969261646 -4.1884009075e-017 -0.3420201838
          -0.86602538824 -6.1230324309e-017 -0.5000000596 -0.76604437828 -7.8716187922e-017 -0.64278763533
          -0.64278757572 -9.3810295189e-017 -0.76604449749 -0.4999999404 -1.0605402409e-016 -0.86602544785
          -0.34202006459 -1.1507535512e-016 -0.93969267607 -0.17364808917 -1.2060018045e-016 -0.98480778933
          -0.9876883626 -0.15643447638 -4.3711388287e-008 -0.97268313169 -0.15405787528 -0.17364822328
          -0.92812341452 -0.14700031281 -0.3420201838 -0.85536319017 -0.13547621667 -0.5000000596
          -0.75661313534 -0.11983574927 -0.64278763533 -0.63487374783 -0.10055413097 -0.76604449749
          -0.49384412169 -0.078217223287 -0.86602544785 -0.33780923486 -0.053503729403 -0.93969267607
          -0.17151020467 -0.027164548635 -0.98480778933 -0.95105654001 -0.30901700258 -4.3711388287e-008
          -0.93660783768 -0.30432233214 -0.17364822328 -0.89370077848 -0.29038098454 -0.3420201838
          -0.82363909483 -0.26761657 -0.5000000596 -0.728551507 -0.2367207408 -0.64278763533
          -0.61132729053 -0.198632285 -0.76604449749 -0.4755282104 -0.15450848639 -0.86602544785
          -0.32528042793 -0.10569001734 -0.93969267607 -0.16514915228 -0.053660213947 -0.98480778933
          -0.89100652933 -0.45399051905 -4.3711388287e-008 -0.87747013569 -0.44709336758 -0.17364822328
          -0.83727222681 -0.4266115129 -0.3420201838 -0.77163428068 -0.39316731691 -0.5000000596
          -0.68255054951 -0.3477768898 -0.64278763533 -0.57272791862 -0.29181945324 -0.76604449749
          -0.44550320506 -0.22699522972 -0.86602544785 -0.30474209785 -0.15527386963 -0.93969267607
          -0.1547215879 -0.078834585845 -0.98480778933 -0.80901700258 -0.58778524399 -4.3711388287e-008
          -0.7967261672 -0.57885545492 -0.17364822328 -0.76022726297 -0.55233746767 -0.3420201838
          -0.70062923431 -0.50903695822 -0.5000000596 -0.61974292994 -0.45026960969 -0.64278763533
          -0.52002602816 -0.37782105803 -0.76604449749 -0.40450844169 -0.29389259219 -0.86602544785
          -0.27670004964 -0.20103435218 -0.93969267607 -0.14048425853 -0.10206779093 -0.98480778933
          -0.70710676908 -0.70710676908 -4.3711388287e-008 -0.69636422396 -0.69636422396 -0.17364822328
          -0.66446298361 -0.66446304321 -0.3420201838 -0.61237239838 -0.61237245798 -0.5000000596
          -0.54167515039 -0.54167521 -0.64278763533 -0.45451942086 -0.45451945066 -0.76604449749
          -0.35355332494 -0.35355335474 -0.86602544785 -0.24184469879 -0.24184471369 -0.93969267607
          -0.12278774381 -0.12278775126 -0.98480778933 -0.58778524399 -0.80901700258 -4.3711388287e-008
          -0.57885545492 -0.79672622681 -0.17364822328 -0.55233740807 -0.76022732258 -0.3420201838
          -0.50903689861 -0.70062923431 -0.5000000596 -0.45026957989 -0.61974292994 -0.64278763533
          -0.37782102823 -0.52002608776 -0.76604449749 -0.29389259219 -0.40450844169 -0.86602544785
          -0.20103435218 -0.27670004964 -0.93969267607 -0.10206778347 -0.14048425853 -0.98480778933
          -0.45399045944 -0.89100652933 -4.3711388287e-008 -0.44709333777 -0.87747013569 -0.17364822328
          -0.4266114831 -0.83727222681 -0.3420201838 -0.39316725731 -0.77163428068 -0.5000000596
          -0.34777686 -0.68255054951 -0.64278763533 -0.29181942344 -0.57272791862 -0.76604449749
          -0.22699521482 -0.44550320506 -0.86602544785 -0.15527385473 -0.30474212766 -0.93969267607
          -0.078834578395 -0.1547215879 -0.98480778933 -0.30901697278 -0.95105654001 -4.3711388287e-008
          -0.30432230234 -0.93660783768 -0.17364822328 -0.29038095474 -0.89370077848 -0.3420201838
          -0.26761654019 -0.82363909483 -0.5000000596 -0.23672071099 -0.728551507 -0.64278763533
          -0.1986322552 -0.61132729053 -0.76604449749 -0.15450845659 -0.4755282104 -0.86602544785
          -0.10569000244 -0.32528042793 -0.93969267607 -0.053660206497 -0.16514915228 -0.98480778933
          -0.15643443167 -0.9876883626 -4.3711388287e-008 -0.15405783057 -0.97268313169 -0.17364822328
          -0.1470002681 -0.92812341452 -0.3420201838 -0.13547618687 -0.85536319017 -0.5000000596
          -0.11983571947 -0.75661313534 -0.64278763533 -0.10055410117 -0.63487380743 -0.76604449749
          -0.078217200935 -0.49384412169 -0.86602544785 -0.053503714502 -0.33780923486 -0.93969267607
          -0.027164541185 -0.17151020467 -0.98480778933 4.3711388287e-008 -1 -4.3711388287e-008
          4.3047315046e-008 -0.98480772972 -0.17364822328 4.1075271184e-008 -0.93969261646 -0.3420201838
          3.7855173218e-008 -0.86602538824 -0.5000000596 3.3484866435e-008 -0.76604437828 -0.64278763533
          2.8097137061e-008 -0.64278757572 -0.76604449749 2.1855692367e-008 -0.4999999404 -0.86602544785
          1.4950172655e-008 -0.34202006459 -0.93969267607 7.5903994201e-009 -0.17364808917 -0.98480778933
          0.055752702057 0.055752702057 -0.9968867898 0.20224936306 0.015917368233 -0.9792047143
          0.36909902096 0.029048677534 -0.92893600464 0.52456951141 0.041284441948 -0.85036605597
          0.66392159462 0.052251629531 -0.7459744215 0.78295314312 0.061619687825 -0.6190212965
          0.87811946869 0.069109633565 -0.47342371941 0.94662111998 0.074500642717 -0.31362089515
          0.98646372557 0.077636502683 -0.14443656802 0.99314701557 0.078162223101 -0.086888894439
          0.18785253167 0.033892374486 -0.98161232471 0.33745732903 0.055630072951 -0.93969559669
          0.49351534247 0.080174505711 -0.8660338521 0.63458102942 0.10228341073 -0.76605808735
          0.75636780262 0.12128518522 -0.64280450344 0.85517388582 0.13660289347 -0.50001728535
          0.92799597979 0.14777064323 -0.34203413129 0.97261971235 0.15444900095 -0.17365606129
          0.98768091202 0.12998250127 -0.087126024067 0.18023784459 0.062861695886 -0.98161232471
          0.32460021973 0.10773511976 -0.93969559669 0.47489726543 0.15639023483 -0.86603391171
          0.61076760292 0.20029446483 -0.76605808735 0.72808241844 0.23811402917 -0.64280456305
          0.82327592373 0.268699646 -0.50001722574 0.89345437288 0.29112187028 -0.34203419089
          0.93648397923 0.30469873548 -0.17365607619 0.9551872015 0.28288951516 -0.087126120925
          0.16818505526 0.090283200145 -0.98161232471 0.30375036597 0.15718735754 -0.93969559669
          0.44458565116 0.22875510156 -0.86603391171 0.57191509008 0.29337361455 -0.76605808735
          0.68186932802 0.34907951951 -0.64280456305 0.77110618353 0.39418017864 -0.50001728535
          0.83691304922 0.42730459571 -0.34203416109 0.87728899717 0.44744563103 -0.17365592718
          0.89917355776 0.42883095145 -0.08712606132 0.15199100971 0.11548160017 -0.98161232471
          0.27542111278 0.20276917517 -0.93969559669 0.40332692862 0.29548722506 -0.86603391171
          0.51898014545 0.37922888994 -0.76605814695 0.61886626482 0.45144972205 -0.64280456305
          0.69994920492 0.50995475054 -0.50001722574 0.75976395607 0.55296593904 -0.3420342207
          0.79649215937 0.57917517424 -0.17365594208 0.82101935148 0.56421297789 -0.087125875056
          0.13205443323 0.1378364712 -0.98161232471 0.2403101474 0.24335812032 -0.93969559669
          0.35213682055 0.35494360328 -0.86603391171 0.4532661736 0.45574638247 -0.76605808735
          0.54062467813 0.54270362854 -0.64280456305 0.61155712605 0.61317259073 -0.50001728535
          0.66390711069 0.66501128674 -0.34203413129 0.69608306885 0.69664341211 -0.17365595698
          0.72264885902 0.68570238352 -0.087125785649 0.10886626691 0.15679734945 -0.98161232471
          0.19928197563 0.27795475721 -0.93969559669 0.29227608442 0.40565997362 -0.8660338521
          0.37639126182 0.52104187012 -0.76605808735 0.44907110929 0.62059444189 -0.64280456305
          0.5081063509 0.70129209757 -0.50001728535 0.55170255899 0.7606819272 -0.34203410149
          0.57853400707 0.79695796967 -0.17365598679 0.60648435354 0.79030740261 -0.087125912309
          0.082997441292 0.17189733684 -0.98161232471 0.15334674716 0.30570724607 -0.93969559669
          0.22521847486 0.44638767838 -0.8660338521 0.29024833441 0.57350754738 -0.76605808735
          0.34646001458 0.68320399523 -0.64280462265 0.39214468002 0.77214330435 -0.50001728535
          0.4259133935 0.83762186766 -0.34203413129 0.44673967361 0.8776487112 -0.17365595698
          0.47538623214 0.87545245886 -0.087125971913 0.05508492887 0.18276464939 -0.98161232471
          0.10363569111 0.32593220472 -0.93969559669 0.15261523426 0.47612383962 -0.86603391171
          0.19695864618 0.61185157299 -0.76605808735 0.23531784117 0.72899091244 -0.64280456305
          0.26652681828 0.82398188114 -0.50001734495 0.28963679075 0.89393693209 -0.34203410149
          0.30394506454 0.93672889471 -0.17365598679 0.33258256316 0.93904095888 -0.08712606132
          0.02581602335 0.18913169205 -0.98161232471 0.051372710615 0.33813160658 -0.93969559669
          0.076254107058 0.49413621426 -0.86603391171 0.098819062114 0.63512974977 -0.76605808735
          0.11838146299 0.75682771206 -0.64280456305 0.13434627652 0.85553133488 -0.50001722574
          0.14622819424 0.92824023962 -0.34203419089 0.15366634727 0.97274369001 -0.17365594208
          0.18158942461 0.97950720787 -0.087126143277 0.013664522208 0.1736240536 -0.98471719027
          0.024741692469 0.31437325478 -0.94897699356 0.037319969386 0.47419598699 -0.87962800264
          0.048750136048 0.61943036318 -0.78353649378 0.058686129749 0.74568033218 -0.66371440887
          0.066831238568 0.84916996956 -0.52387398481 0.072944052517 0.92684262991 -0.36829599738
          0.076846800745 0.97642993927 -0.20169073343 0.078162416816 0.99314695597 -0.086889073253
          0 1.2246063538e-016 1 1 5.3529245352e-024 4.3711388287e-008
          0.98480772972 2.1265071506e-017 0.17364822328 0.93969261646 4.1884009075e-017 0.3420201838
          0.86602538824 6.1230324309e-017 0.5000000596 0.76604437828 7.8716187922e-017 0.64278763533
          0.64278757572 9.3810295189e-017 0.76604449749 0.4999999404 1.0605402409e-016 0.86602544785
          0.34202006459 1.1507535512e-016 0.93969267607 0.17364808917 1.2060018045e-016 0.98480778933
          0.9876883626 -0.15643447638 4.3711388287e-008 0.97268313169 -0.15405787528 0.17364822328
          0.92812341452 -0.14700031281 0.3420201838 0.85536319017 -0.13547621667 0.5000000596
          0.75661313534 -0.11983574927 0.64278763533 0.63487374783 -0.10055413097 0.76604449749
          0.49384412169 -0.078217223287 0.86602544785 0.33780923486 -0.053503729403 0.93969267607
          0.17151020467 -0.027164548635 0.98480778933 0.95105654001 -0.30901700258 4.3711388287e-008
          0.93660783768 -0.30432233214 0.17364822328 0.89370077848 -0.29038098454 0.3420201838
          0.82363909483 -0.26761657 0.5000000596 0.728551507 -0.2367207408 0.64278763533
          0.61132729053 -0.198632285 0.76604449749 0.4755282104 -0.15450848639 0.86602544785
          0.32528042793 -0.10569001734 0.93969267607 0.16514915228 -0.053660213947 0.98480778933
          0.89100652933 -0.45399051905 4.3711388287e-008 0.87747013569 -0.44709336758 0.17364822328
          0.83727222681 -0.4266115129 0.3420201838 0.77163428068 -0.39316731691 0.5000000596
          0.68255054951 -0.3477768898 0.64278763533 0.57272791862 -0.29181945324 0.76604449749
          0.44550320506 -0.22699522972 0.86602544785 0.30474209785 -0.15527386963 0.93969267607
          0.1547215879 -0.078834585845 0.98480778933 0.80901700258 -0.58778524399 4.3711388287e-008
          0.7967261672 -0.57885545492 0.17364822328 0.76022726297 -0.55233746767 0.3420201838
          0.70062923431 -0.50903695822 0.5000000596 0.61974292994 -0.45026960969 0.64278763533
          0.52002602816 -0.37782105803 0.76604449749 0.40450844169 -0.29389259219 0.86602544785
          0.27670004964 -0.20103435218 0.93969267607 0.14048425853 -0.10206779093 0.98480778933
          0.70710676908 -0.70710676908 4.3711388287e-008 0.69636422396 -0.69636422396 0.17364822328
          0.66446298361 -0.66446304321 0.3420201838 0.61237239838 -0.61237245798 0.5000000596
          0.54167515039 -0.54167521 0.64278763533 0.45451942086 -0.45451945066 0.76604449749
          0.35355332494 -0.35355335474 0.86602544785 0.24184469879 -0.24184471369 0.93969267607
          0.12278774381 -0.12278775126 0.98480778933 0.58778524399 -0.80901700258 4.3711388287e-008
          0.57885545492 -0.79672622681 0.17364822328 0.55233740807 -0.76022732258 0.3420201838
          0.50903689861 -0.70062923431 0.5000000596 0.45026957989 -0.61974292994 0.64278763533
          0.37782102823 -0.52002608776 0.76604449749 0.29389259219 -0.40450844169 0.86602544785
          0.20103435218 -0.27670004964 0.93969267607 0.10206778347 -0.14048425853 0.98480778933
          0.45399045944 -0.89100652933 4.3711388287e-008 0.44709333777 -0.87747013569 0.17364822328
          0.4266114831 -0.83727222681 0.3420201838 0.39316725731 -0.77163428068 0.5000000596
          0.34777686 -0.68255054951 0.64278763533 0.29181942344 -0.57272791862 0.76604449749
          0.22699521482 -0.44550320506 0.86602544785 0.15527385473 -0.30474212766 0.93969267607
          0.078834578395 -0.1547215879 0.98480778933 0.30901697278 -0.95105654001 4.3711388287e-008
          0.30432230234 -0.93660783768 0.17364822328 0.29038095474 -0.89370077848 0.3420201838
          0.26761654019 -0.82363909483 0.5000000596 0.23672071099 -0.728551507 0.64278763533
          0.1986322552 -0.61132729053 0.76604449749 0.15450845659 -0.4755282104 0.86602544785
          0.10569000244 -0.32528042793 0.93969267607 0.053660206497 -0.16514915228 0.98480778933
          0.15643443167 -0.9876883626 4.3711388287e-008 0.15405783057 -0.97268313169 0.17364822328
          0.1470002681 -0.92812341452 0.3420201838 0.13547618687 -0.85536319017 0.5000000596
          0.11983571947 -0.75661313534 0.64278763533 0.10055410117 -0.63487380743 0.76604449749
          0.078217200935 -0.49384412169 0.86602544785 0.053503714502 -0.33780923486 0.93969267607
          0.027164541185 -0.17151020467 0.98480778933 -4.3711388287e-008 -1 4.3711388287e-008
          -4.3047315046e-008 -0.98480772972 0.17364822328 -4.1075271184e-008 -0.93969261646 0.3420201838
          -3.7855173218e-008 -0.86602538824 0.5000000596 -3.3484866435e-008 -0.76604437828 0.64278763533
          -2.8097137061e-008 -0.64278757572 0.76604449749 -2.1855692367e-008 -0.4999999404 0.86602544785
          -1.4950172655e-008 -0.34202006459 0.93969267607 -7.5903994201e-009 -0.17364808917 0.98480778933
          -0.055752702057 0.055752702057 0.9968867898 -0.20224936306 0.015917368233 0.9792047143
          -0.36909902096 0.029048677534 0.92893600464 -0.52456951141 0.041284441948 0.85036605597
          -0.66392159462 0.052251629531 0.7459744215 -0.78295314312 0.061619687825 0.6190212965
          -0.87811946869 0.069109633565 0.47342371941 -0.94662111998 0.074500642717 0.31362089515
          -0.98646372557 0.077636502683 0.14443656802 -0.99314701557 0.078162223101 0.086888894439
          -0.18785253167 0.033892374486 0.98161232471 -0.33745732903 0.055630072951 0.93969559669
          -0.49351534247 0.080174505711 0.8660338521 -0.63458102942 0.10228341073 0.76605808735
          -0.75636780262 0.12128518522 0.64280450344 -0.85517388582 0.13660289347 0.50001728535
          -0.92799597979 0.14777064323 0.34203413129 -0.97261971235 0.15444900095 0.17365606129
          -0.98768091202 0.12998250127 0.087126024067 -0.18023784459 0.062861695886 0.98161232471
          -0.32460021973 0.10773511976 0.93969559669 -0.47489726543 0.15639023483 0.86603391171
          -0.61076760292 0.20029446483 0.76605808735 -0.72808241844 0.23811402917 0.64280456305
          -0.82327592373 0.268699646 0.50001722574 -0.89345437288 0.29112187028 0.34203419089
          -0.93648397923 0.30469873548 0.17365607619 -0.9551872015 0.28288951516 0.087126120925
          -0.16818505526 0.090283200145 0.98161232471 -0.30375036597 0.15718735754 0.93969559669
          -0.44458565116 0.22875510156 0.86603391171 -0.57191509008 0.29337361455 0.76605808735
          -0.68186932802 0.34907951951 0.64280456305 -0.77110618353 0.39418017864 0.50001728535
          -0.83691304922 0.42730459571 0.34203416109 -0.87728899717 0.44744563103 0.17365592718
          -0.89917355776 0.42883095145 0.08712606132 -0.15199100971 0.11548160017 0.98161232471
          -0.27542111278 0.20276917517 0.93969559669 -0.40332692862 0.29548722506 0.86603391171
          -0.51898014545 0.37922888994 0.76605814695 -0.61886626482 0.45144972205 0.64280456305
          -0.69994920492 0.50995475054 0.50001722574 -0.75976395607 0.55296593904 0.3420342207
          -0.79649215937 0.57917517424 0.17365594208 -0.82101935148 0.56421297789 0.087125875056
          -0.13205443323 0.1378364712 0.98161232471 -0.2403101474 0.24335812032 0.93969559669
          -0.35213682055 0.35494360328 0.86603391171 -0.4532661736 0.45574638247 0.76605808735
          -0.54062467813 0.54270362854 0.64280456305 -0.61155712605 0.61317259073 0.50001728535
          -0.66390711069 0.66501128674 0.34203413129 -0.69608306885 0.69664341211 0.17365595698
          -0.72264885902 0.68570238352 0.087125785649 -0.10886626691 0.15679734945 0.98161232471
          -0.19928197563 0.27795475721 0.93969559669 -0.29227608442 0.40565997362 0.8660338521
          -0.37639126182 0.52104187012 0.76605808735 -0.44907110929 0.62059444189 0.64280456305
          -0.5081063509 0.70129209757 0.50001728535 -0.55170255899 0.7606819272 0.34203410149
          -0.57853400707 0.79695796967 0.17365598679 -0.60648435354 0.79030740261 0.087125912309
          -0.082997441292 0.17189733684 0.98161232471 -0.15334674716 0.30570724607 0.93969559669
          -0.22521847486 0.44638767838 0.8660338521 -0.29024833441 0.57350754738 0.76605808735
          -0.34646001458 0.68320399523 0.64280462265 -0.39214468002 0.77214330435 0.50001728535
          -0.4259133935 0.83762186766 0.34203413129 -0.44673967361 0.8776487112 0.17365595698
          -0.47538623214 0.87545245886 0.087125971913 -0.05508492887 0.18276464939 0.98161232471
          -0.10363569111 0.32593220472 0.93969559669 -0.15261523426 0.47612383962 0.86603391171
          -0.19695864618 0.61185157299 0.76605808735 -0.23531784117 0.72899091244 0.64280456305
          -0.26652681828 0.82398188114 0.50001734495 -0.28963679075 0.89393693209 0.34203410149
          -0.30394506454 0.93672889471 0.17365598679 -0.33258256316 0.93904095888 0.08712606132
          -0.02581602335 0.18913169205 0.98161232471 -0.051372710615 0.33813160658 0.93969559669
          -0.076254107058 0.49413621426 0.86603391171 -0.098819062114 0.63512974977 0.76605808735
          -0.11838146299 0.75682771206 0.64280456305 -0.13434627652 0.85553133488 0.50001722574
          -0.14622819424 0.92824023962 0.34203419089 -0.15366634727 0.97274369001 0.17365594208
          -0.18158942461 0.97950720787 0.087126143277 -0.013664522208 0.1736240536 0.98471719027
          -0.024741692469 0.31437325478 0.94897699356 -0.037319969386 0.47419598699 0.87962800264
          -0.048750136048 0.61943036318 0.78353649378 -0.058686129749 0.74568033218 0.66371440887
          -0.066831238568 0.84916996956 0.52387398481 -0.072944052517 0.92684262991 0.36829599738
          -0.076846800745 0.97642993927 0.20169073343 -0.078162416816 0.99314695597 0.086889073253
          -1.2246063538e-016 0 1 -1 0 4.3711388287e-008
          -0.98480772972 0 0.17364822328 -0.93969261646 0 0.3420201838
          -0.86602538824 0 0.5000000596 -0.76604437828 0 0.64278763533
          -0.64278757572 0 0.76604449749 -0.4999999404 0 0.86602544785
          -0.34202006459 0 0.93969267607 -0.17364808917 0 0.98480778933
          -0.9876883626 0.15643447638 4.3711388287e-008 -0.97268313169 0.15405787528 0.17364822328
          -0.92812341452 0.14700031281 0.3420201838 -0.85536319017 0.13547621667 0.5000000596
          -0.75661313534 0.11983574927 0.64278763533 -0.63487374783 0.10055413097 0.76604449749
          -0.49384412169 0.078217223287 0.86602544785 -0.33780923486 0.053503729403 0.93969267607
          -0.17151020467 0.027164548635 0.98480778933 -0.95105654001 0.30901700258 4.3711388287e-008
          -0.93660783768 0.30432233214 0.17364822328 -0.89370077848 0.29038098454 0.3420201838
          -0.82363909483 0.26761657 0.5000000596 -0.728551507 0.2367207408 0.64278763533
          -0.61132729053 0.198632285 0.76604449749 -0.4755282104 0.15450848639 0.86602544785
          -0.32528042793 0.10569001734 0.93969267607 -0.16514915228 0.053660213947 0.98480778933
          -0.89100652933 0.45399051905 4.3711388287e-008 -0.87747013569 0.44709336758 0.17364822328
          -0.83727222681 0.4266115129 0.3420201838 -0.77163428068 0.39316731691 0.5000000596
          -0.68255054951 0.3477768898 0.64278763533 -0.57272791862 0.29181945324 0.76604449749
          -0.44550320506 0.22699522972 0.86602544785 -0.30474209785 0.15527386963 0.93969267607
          -0.1547215879 0.078834585845 0.98480778933 -0.80901700258 0.58778524399 4.3711388287e-008
          -0.7967261672 0.57885545492 0.17364822328 -0.76022726297 0.55233746767 0.3420201838
          -0.70062923431 0.50903695822 0.5000000596 -0.61974292994 0.45026960969 0.64278763533
          -0.52002602816 0.37782105803 0.76604449749 -0.40450844169 0.29389259219 0.86602544785
          -0.27670004964 0.20103435218 0.93969267607 -0.14048425853 0.10206779093 0.98480778933
          -0.70710676908 0.70710676908 4.3711388287e-008 -0.69636422396 0.69636422396 0.17364822328
          -0.66446298361 0.66446304321 0.3420201838 -0.61237239838 0.61237245798 0.5000000596
          -0.54167515039 0.54167521 0.64278763533 -0.45451942086 0.45451945066 0.76604449749
          -0.35355332494 0.35355335474 0.86602544785 -0.24184469879 0.24184471369 0.93969267607
          -0.12278774381 0.12278775126 0.98480778933 -0.58778524399 0.80901700258 4.3711388287e-008
          -0.57885545492 0.79672622681 0.17364822328 -0.55233740807 0.76022732258 0.3420201838
          -0.50903689861 0.70062923431 0.5000000596 -0.45026957989 0.61974292994 0.64278763533
          -0.37782102823 0.52002608776 0.76604449749 -0.29389259219 0.40450844169 0.86602544785
          -0.20103435218 0.27670004964 0.93969267607 -0.10206778347 0.14048425853 0.98480778933
          -0.45399045944 0.89100652933 4.3711388287e-008 -0.44709333777 0.87747013569 0.17364822328
          -0.4266114831 0.83727222681 0.3420201838 -0.39316725731 0.77163428068 0.5000000596
          -0.34777686 0.68255054951 0.64278763533 -0.29181942344 0.57272791862 0.76604449749
          -0.22699521482 0.44550320506 0.86602544785 -0.15527385473 0.30474212766 0.93969267607
          -0.078834578395 0.1547215879 0.98480778933 -0.30901697278 0.95105654001 4.3711388287e-008
          -0.30432230234 0.93660783768 0.17364822328 -0.29038095474 0.89370077848 0.3420201838
          -0.26761654019 0.82363909483 0.5000000596 -0.23672071099 0.728551507 0.64278763533
          -0.1986322552 0.61132729053 0.76604449749 -0.15450845659 0.4755282104 0.86602544785
          -0.10569000244 0.32528042793 0.93969267607 -0.053660206497 0.16514915228 0.98480778933
          -0.15643443167 0.9876883626 4.3711388287e-008 -0.15405783057 0.97268313169 0.17364822328
          -0.1470002681 0.92812341452 0.3420201838 -0.13547618687 0.85536319017 0.5000000596
          -0.11983571947 0.75661313534 0.64278763533 -0.10055410117 0.63487380743 0.76604449749
          -0.078217200935 0.49384412169 0.86602544785 -0.053503714502 0.33780923486 0.93969267607
          -0.027164541185 0.17151020467 0.98480778933 4.3711388287e-008 1 4.3711388287e-008
          4.3047315046e-008 0.98480772972 0.17364822328 4.1075271184e-008 0.93969261646 0.3420201838
          3.7855173218e-008 0.86602538824 0.5000000596 3.3484866435e-008 0.76604437828 0.64278763533
          2.8097137061e-008 0.64278757572 0.76604449749 2.1855692367e-008 0.4999999404 0.86602544785
          1.4950172655e-008 0.34202006459 0.93969267607 7.5903994201e-009 0.17364808917 0.98480778933
          0.055752702057 -0.055752702057 0.9968867898 0.20224936306 -0.015917368233 0.9792047143
          0.36909902096 -0.029048677534 0.92893600464 0.52456951141 -0.041284441948 0.85036605597
          0.66392159462 -0.052251629531 0.7459744215 0.78295314312 -0.061619687825 0.6190212965
          0.87811946869 -0.069109633565 0.47342371941 0.94662111998 -0.074500642717 0.31362089515
          0.98646372557 -0.077636502683 0.14443656802 0.99314701557 -0.078162223101 0.086888894439
          0.18785253167 -0.033892374486 0.98161232471 0.33745732903 -0.055630072951 0.93969559669
          0.49351534247 -0.080174505711 0.8660338521 0.63458102942 -0.10228341073 0.76605808735
          0.75636780262 -0.12128518522 0.64280450344 0.85517388582 -0.13660289347 0.50001728535
          0.92799597979 -0.14777064323 0.34203413129 0.97261971235 -0.15444900095 0.17365606129
          0.98768091202 -0.12998250127 0.087126024067 0.18023784459 -0.062861695886 0.98161232471
          0.32460021973 -0.10773511976 0.93969559669 0.47489726543 -0.15639023483 0.86603391171
          0.61076760292 -0.20029446483 0.76605808735 0.72808241844 -0.23811402917 0.64280456305
          0.82327592373 -0.268699646 0.50001722574 0.89345437288 -0.29112187028 0.34203419089
          0.93648397923 -0.30469873548 0.17365607619 0.9551872015 -0.28288951516 0.087126120925
          0.16818505526 -0.090283200145 0.98161232471 0.30375036597 -0.15718735754 0.93969559669
          0.44458565116 -0.22875510156 0.86603391171 0.57191509008 -0.29337361455 0.76605808735
          0.68186932802 -0.34907951951 0.64280456305 0.77110618353 -0.39418017864 0.50001728535
          0.83691304922 -0.42730459571 0.34203416109 0.87728899717 -0.44744563103 0.17365592718
          0.89917355776 -0.42883095145 0.08712606132 0.15199100971 -0.11548160017 0.98161232471
          0.27542111278 -0.20276917517 0.93969559669 0.40332692862 -0.29548722506 0.86603391171
          0.51898014545 -0.37922888994 0.76605814695 0.61886626482 -0.45144972205 0.64280456305
          0.69994920492 -0.50995475054 0.50001722574 0.75976395607 -0.55296593904 0.3420342207
          0.79649215937 -0.57917517424 0.17365594208 0.82101935148 -0.56421297789 0.087125875056
          0.13205443323 -0.1378364712 0.98161232471 0.2403101474 -0.24335812032 0.93969559669
          0.35213682055 -0.35494360328 0.86603391171 0.4532661736 -0.45574638247 0.76605808735
          0.54062467813 -0.54270362854 0.64280456305 0.61155712605 -0.61317259073 0.50001728535
          0.66390711069 -0.66501128674 0.34203413129 0.69608306885 -0.69664341211 0.17365595698
          0.72264885902 -0.68570238352 0.087125785649 0.10886626691 -0.15679734945 0.98161232471
          0.19928197563 -0.27795475721 0.93969559669 0.29227608442 -0.40565997362 0.8660338521
          0.37639126182 -0.52104187012 0.76605808735 0.44907110929 -0.62059444189 0.64280456305
          0.5081063509 -0.70129209757 0.50001728535 0.55170255899 -0.7606819272 0.34203410149
          0.57853400707 -0.79695796967 0.17365598679 0.60648435354 -0.79030740261 0.087125912309
          0.082997441292 -0.17189733684 0.98161232471 0.15334674716 -0.30570724607 0.93969559669
          0.22521847486 -0.44638767838 0.8660338521 0.29024833441 -0.57350754738 0.76605808735
          0.34646001458 -0.68320399523 0.64280462265 0.39214468002 -0.77214330435 0.50001728535
          0.4259133935 -0.83762186766 0.34203413129 0.44673967361 -0.8776487112 0.17365595698
          0.47538623214 -0.87545245886 0.087125971913 0.05508492887 -0.18276464939 0.98161232471
          0.10363569111 -0.32593220472 0.93969559669 0.15261523426 -0.47612383962 0.86603391171
          0.19695864618 -0.61185157299 0.76605808735 0.23531784117 -0.72899091244 0.64280456305
          0.26652681828 -0.82398188114 0.50001734495 0.28963679075 -0.89393693209 0.34203410149
          0.30394506454 -0.93672889471 0.17365598679 0.33258256316 -0.93904095888 0.08712606132
          0.02581602335 -0.18913169205 0.98161232471 0.051372710615 -0.33813160658 0.93969559669
          0.076254107058 -0.49413621426 0.86603391171 0.098819062114 -0.63512974977 0.76605808735
          0.11838146299 -0.75682771206 0.64280456305 0.13434627652 -0.85553133488 0.50001722574
          0.14622819424 -0.92824023962 0.34203419089 0.15366634727 -0.97274369001 0.17365594208
          0.18158942461 -0.97950720787 0.087126143277 0.013664522208 -0.1736240536 0.98471719027
          0.024741692469 -0.31437325478 0.94897699356 0.037319969386 -0.47419598699 0.87962800264
          0.048750136048 -0.61943036318 0.78353649378 0.058686129749 -0.74568033218 0.66371440887
          0.066831238568 -0.84916996956 0.52387398481 0.072944052517 -0.92684262991 0.36829599738
          0.076846800745 -0.97642993927 0.20169073343 0.078162416816 -0.99314695597 0.086889073253
          0 0 -1 1 0 -4.3711388287e-008
          0.98480772972 0 -0.17364822328 0.93969261646 0 -0.3420201838
          0.86602538824 0 -0.5000000596 0.76604437828 0 -0.64278763533
          0.64278757572 0 -0.76604449749 0.4999999404 0 -0.86602544785
          0.34202006459 0 -0.93969267607 0.17364808917 0 -0.98480778933
          0.9876883626 0.15643447638 -4.3711388287e-008 0.97268313169 0.15405787528 -0.17364822328
          0.92812341452 0.14700031281 -0.3420201838 0.85536319017 0.13547621667 -0.5000000596