<?xml version="1.0"?>
<VTKFile type="PolyData" version="0.1" byte_order="LittleEndian" compressor="vtkZLibDataCompressor">
	<PolyData>
		<Piece NumberOfPoints="1545" NumberOfVerts="0" NumberOfLines="0" NumberOfStrips="0" NumberOfPolys="1652">
		<PointData Normals="Normals">
		<DataArray type="Float32" Name="Normals" NumberOfComponents="3" format="ascii">
			 0.228484 -0.574301 -0.786112
			 0.650188 -0.001917 -0.759771
			 0.544730  0.366262 -0.754401
			 0.615493  0.543917 -0.570371
			 0.561906  0.448153 -0.695284
			 0.516595  0.323259 -0.792864
			 0.597725  0.237323 -0.765769
			 0.661919  0.169971 -0.730050
			 0.626015  0.172223 -0.760555
			 0.460089  0.169553 -0.871533
			 0.276338  0.025644 -0.960718
			 0.231829 -0.122892 -0.964963
			 0.338560  0.865543 -0.369070
			 0.231675 -0.881693 -0.411029
			 0.881599 -0.394981 -0.258404
			 0.958832  0.216576 -0.183673
			 0.917008  0.395537 -0.051454
			 0.942447  0.303883 -0.139458
			 0.962287  0.151523 -0.225932
			 0.981096  0.048019 -0.187469
			 0.988215 -0.033290 -0.149408
			 0.992402 -0.068037 -0.102516
			 0.978973 -0.073836 -0.190160
			 0.886840 -0.250389 -0.388356
			 0.867707 -0.326999 -0.374375
			 0.771791  0.613296  0.167950
			-0.089470 -0.936115  0.340124
			 0.374763 -0.586912  0.717695
			 0.553281  0.091857  0.827915
			 0.563213  0.169297  0.808783
			 0.622538 -0.134177  0.771001
			 0.539401 -0.271386  0.797117
			 0.354430 -0.308247  0.882816
			 0.261206 -0.288630  0.921121
			 0.283710 -0.338577  0.897148
			 0.274116 -0.434078  0.858159
			 0.197678 -0.543827  0.815583
			 0.132994 -0.486095  0.863727
			 0.228629  0.584649  0.778405
			-0.437957 -0.870478  0.224639
			-0.609102 -0.251537  0.752146
			-0.280033 -0.203983  0.938069
			-0.028705 -0.169577  0.985099
			 0.026396 -0.315746  0.948476
			-0.246005 -0.339218  0.907972
			-0.418910 -0.286075  0.861786
			-0.448317 -0.245226  0.859579
			-0.444296 -0.233485  0.864920
			-0.466004 -0.281565  0.838785
			-0.531509 -0.397380  0.748056
			-0.637187 -0.343267  0.690044
			-0.381595  0.626552  0.679573
			-0.558719 -0.824580 -0.088893
			-0.899320 -0.317738  0.300444
			-0.759265 -0.345479  0.551508
			-0.775012 -0.264928  0.573733
			-0.827689 -0.256142  0.499321
			-0.892060 -0.195083  0.407641
			-0.910418 -0.122028  0.395283
			-0.907538 -0.074779  0.413258
			-0.918905 -0.050697  0.391207
			-0.944170 -0.060950  0.323771
			-0.965443 -0.113140  0.234774
			-0.969768 -0.057744  0.237098
			-0.538201  0.754052  0.376490
			-0.152103 -0.852677 -0.499806
			-0.707956 -0.467620 -0.529272
			-0.730116  0.111112 -0.674230
			-0.776828  0.311449 -0.547301
			-0.826618  0.238213 -0.509860
			-0.862811  0.184167 -0.470786
			-0.869842  0.182269 -0.458424
			-0.834522  0.221982 -0.504279
			-0.799167  0.241840 -0.550314
			-0.803335  0.213854 -0.555805
			-0.829938  0.150694 -0.537117
			-0.870626  0.097857 -0.482115
			-0.521075  0.853367 -0.015664
			 0.236153 -0.544195 -0.805037
			 0.037708  0.009749 -0.999241
			-0.009538  0.356691 -0.934174
			-0.022995  0.479217 -0.877395
			-0.004688  0.441948 -0.897028
			-0.041007  0.389978 -0.919911
			-0.055666  0.350405 -0.934942
			-0.029408  0.321399 -0.946487
			-0.104756  0.288816 -0.951636
			-0.270468  0.247922 -0.930259
			-0.373190  0.208001 -0.904138
			-0.410672  0.102556 -0.905997
			-0.317464  0.861634 -0.395983
			 0.305428 -0.951428 -0.038700
			 0.900611 -0.427020 -0.080953
			 0.980178  0.197426 -0.016546
			 0.912820  0.339326  0.227193
			 0.901608  0.046071  0.430094
			 0.887752 -0.109315  0.447154
			 0.869444 -0.145534  0.472109
			 0.871532 -0.170449  0.459759
			 0.874487 -0.260019  0.409466
			 0.866363 -0.327883  0.376707
			 0.845686 -0.413886  0.336917
			 0.853272 -0.340558  0.394902
			 0.646191  0.570228  0.507225
			 0.134339  0.937106  0.322159
			-0.055055 -0.951662 -0.302172
			 0.066940 -0.749899  0.658157
			 0.762462 -0.553574  0.334973
			 0.784918  0.082208  0.614121
			 0.778878  0.032297  0.626343
			 0.844851 -0.089015  0.527545
			 0.887805 -0.186610  0.420689
			 0.864978 -0.351784  0.357855
			 0.855859 -0.290724  0.427767
			 0.484458  0.608154  0.628847
			 0.507030 -0.807841 -0.300521
			 0.856937  0.007127 -0.515372
			 0.877872  0.289257 -0.381668
			 0.961893  0.165334 -0.217778
			 0.996903  0.071076 -0.033644
			 0.993340 -0.046116 -0.105590
			 0.923210 -0.318415 -0.215162
			 0.955777 -0.278837 -0.093490
			 0.634755  0.768103  0.084287
			 0.924188  0.023642 -0.381206
			 0.844423  0.414225 -0.339657
			 0.834230  0.192561 -0.516702
			 0.919211  0.085814 -0.384301
			 0.963003  0.021436 -0.268638
			 0.907298 -0.281639 -0.312234
			 0.915706 -0.248307 -0.315952
			 0.609175  0.785538 -0.108792
			-0.091230 -0.536593 -0.838895
			-0.390088  0.091155 -0.916255
			-0.489765  0.030893 -0.871307
			-0.420389  0.070572 -0.904595
			-0.367000  0.124568 -0.921843
			-0.400149  0.105769 -0.910326
			-0.307532  0.042136 -0.950604
			-0.248987  0.091506 -0.964174
			-0.241430  0.854309 -0.460290
			-0.763545 -0.605674 -0.223959
			-0.929590 -0.129576 -0.345069
			-0.907993 -0.167694 -0.383962
			-0.868627 -0.123660 -0.479787
			-0.854293 -0.006596 -0.519750
			-0.875007  0.019103 -0.483733
			-0.881374  0.013078 -0.472238
			-0.896364  0.078215 -0.436364
			-0.558736  0.796225 -0.232034
			-0.400930 -0.843467  0.357519
			-0.791464 -0.359063  0.494630
			-0.929150 -0.279143  0.242405
			-0.950232 -0.254183  0.180137
			-0.964920 -0.169128  0.200814
			-0.967895 -0.121653  0.219953
			-0.957787 -0.175353  0.227807
			-0.971684 -0.047843  0.231392
			-0.556853  0.819953  0.132637
			-0.335702 -0.372256  0.865292
			-0.556865 -0.341381  0.757206
			-0.672757 -0.285973  0.682362
			-0.641970 -0.240160  0.728147
			-0.578175 -0.244029  0.778565
			-0.533398 -0.300780  0.790581
			-0.523814 -0.118220  0.843589
			-0.247983  0.812003  0.528352
			-0.031809 -0.308562  0.950672
			-0.026574 -0.234808  0.971678
			 0.076582 -0.190007  0.978791
			 0.235651 -0.260257  0.936341
			 0.251439 -0.312672  0.915977
			 0.227886 -0.333775  0.914692
			 0.298030 -0.183004  0.936850
			 0.376033 -0.900658 -0.217747
			 0.547156 -0.228194 -0.805324
			 0.487575  0.456982 -0.743934
			 0.473899  0.237376 -0.847981
			 0.493030  0.122812 -0.861300
			 0.530210  0.093769 -0.842665
			 0.600567 -0.151159 -0.785156
			 0.628131 -0.097375 -0.771991
			 0.342957  0.853258 -0.392850
			-0.027466  0.997113  0.070793
			 0.142822 -0.789602 -0.596767
			 0.596551 -0.064778 -0.799956
			 0.786953  0.369466 -0.494166
			 0.814585  0.127072 -0.565953
			 0.860853 -0.087262 -0.501317
			 0.855858 -0.246341 -0.454779
			 0.840508  0.247931 -0.481743
			 0.286671 -0.957899 -0.015757
			 0.876952 -0.212923  0.430836
			 0.861196  0.204242  0.465431
			 0.926624  0.021246  0.375389
			 0.938183 -0.177068  0.297423
			 0.897889 -0.356388  0.258425
			 0.952187  0.090634  0.291762
			-0.093083 -0.881917  0.462123
			 0.097473 -0.257673  0.961303
			 0.209640 -0.042037  0.976875
			 0.215856 -0.201091  0.955494
			 0.203616 -0.350700  0.914084
			 0.143900 -0.473547  0.868934
			 0.077090  0.287976  0.954530
			-0.695594 -0.717194 -0.042213
			-0.950950 -0.242910  0.191545
			-0.955907 -0.074275  0.284122
			-0.934180 -0.122154  0.335239
			-0.926919 -0.149833  0.344051
			-0.914344 -0.206508  0.348323
			-0.879789  0.341696  0.330477
			-0.562451 -0.748096 -0.352138
			-0.829691 -0.219637 -0.513198
			-0.781470 -0.030730 -0.623186
			-0.772474  0.048089 -0.633223
			-0.787744  0.052583 -0.613755
			-0.832095 -0.049518 -0.552418
			-0.793399  0.397780 -0.460747
			-0.515630 -0.561147 -0.647487
			-0.457637 -0.073132 -0.886126
			-0.233412  0.034272 -0.971774
			-0.151444  0.073042 -0.985763
			-0.047211  0.060924 -0.997025
			 0.016524 -0.048695 -0.998677
			-0.015614  0.420571 -0.907125
			 0.815181 -0.529046  0.235777
			 0.406605 -0.643562  0.648460
			 0.060743 -0.298244  0.952555
			 0.078886 -0.264964  0.961026
			 0.045046 -0.369670  0.928071
			 0.127685 -0.315075  0.940438
			 0.138529  0.577924  0.804247
			 0.208180 -0.885359 -0.415692
			-0.777289 -0.550519 -0.304551
			-0.981514 -0.171259 -0.085439
			-0.997949 -0.051254  0.038343
			-0.982741 -0.154442  0.101820
			-0.974352 -0.193129  0.115496
			-0.865320  0.484071  0.129985
			 0.833855 -0.363949 -0.415003
			 0.333392  0.352212 -0.874527
			 0.192624  0.432289 -0.880921
			 0.052661  0.252179 -0.966247
			-0.023503 -0.161222 -0.986638
			 0.013348 -0.298942 -0.954178
			 0.035799  0.572531 -0.819101
			 0.939027  0.033581  0.342200
			 0.960628  0.190228  0.202504
			 0.996035  0.002873  0.088911
			 0.962708 -0.269990  0.017273
			 0.970924 -0.239275 -0.007377
			 0.915340  0.402133  0.021012
			 0.868420 -0.416910  0.268390
			 0.499326 -0.468042  0.729116
			 0.125450 -0.106659  0.986350
			 0.148539 -0.073346  0.986183
			 0.123529 -0.169695  0.977724
			 0.203235 -0.118864  0.971888
			 0.106576  0.704209  0.701948
			 0.312891 -0.904447 -0.289957
			-0.778562 -0.605901 -0.163480
			-0.983701 -0.179399  0.012186
			-0.992250 -0.049645  0.113911
			-0.972716 -0.131862  0.190884
			-0.964762 -0.164801  0.205124
			-0.876789  0.471557  0.094203
			 0.844081 -0.362472 -0.395147
			 0.287005  0.179708 -0.940921
			 0.143012  0.250905 -0.957389
			-0.001289  0.075453 -0.997148
			-0.069852 -0.297834 -0.952059
			-0.024349 -0.413707 -0.910084
			-0.099463  0.444645 -0.890167
			 0.955568  0.100062  0.277267
			 0.969714  0.219806  0.106488
			 0.999128  0.035887  0.021315
			 0.975760 -0.218845 -0.000359
			 0.980254 -0.195701 -0.028332
			 0.891466  0.441916 -0.099995
			 0.220048 -0.809235 -0.544719
			 0.611015 -0.105993 -0.784491
			 0.779741  0.325656 -0.534744
			 0.803177  0.096335 -0.587900
			 0.858185 -0.084370 -0.506361
			 0.867018 -0.219276 -0.447434
			 0.807752  0.279424 -0.519093
			 0.382078 -0.923231  0.040750
			 0.896659 -0.117468  0.426853
			 0.859598  0.256091  0.442164
			 0.929283  0.086625  0.359068
			 0.951053 -0.092692  0.294798
			 0.928463 -0.254121  0.270887
			 0.941260  0.207876  0.266116
			-0.026913 -0.832299  0.553673
			 0.128620 -0.142923  0.981341
			 0.223387  0.052159  0.973333
			 0.238421 -0.087418  0.967220
			 0.239665 -0.222513  0.945013
			 0.191308 -0.339788  0.920840
			 0.045784  0.414042  0.909106
			-0.680645 -0.732518  0.011846
			-0.943560 -0.240918  0.227275
			-0.947692 -0.079163  0.309213
			-0.923286 -0.115957  0.366192
			-0.916337 -0.139055  0.375487
			-0.903133 -0.188801  0.385624
			-0.888139  0.340268  0.308912
			-0.530279 -0.789500 -0.309020
			-0.828370 -0.272427 -0.489475
			-0.785400 -0.109513 -0.609224
			-0.781268 -0.041039 -0.622845
			-0.797500 -0.036450 -0.602217
			-0.836035 -0.122304 -0.534872
			-0.819667  0.327402 -0.470057
			-0.488209 -0.628853 -0.605142
			-0.465992 -0.157944 -0.870578
			-0.247239 -0.060736 -0.967049
			-0.168404 -0.024808 -0.985406
			-0.064034 -0.032300 -0.997425
			 0.007445 -0.125257 -0.992096
			-0.071729  0.352063 -0.933224
			 0.033521 -0.663530  0.747398
			 0.747185 -0.541237  0.385716
			 0.795387  0.066637  0.602428
			 0.784205  0.023877  0.620043
			 0.839818 -0.096991  0.534133
			 0.876743 -0.195888  0.439261
			 0.849687 -0.349243  0.395046
			 0.842081 -0.287595  0.456277
			 0.534630  0.633081  0.559803
			 0.474262 -0.852830 -0.218532
			 0.852007 -0.104688 -0.512956
			 0.897189  0.158783 -0.412117
			 0.970669  0.055807 -0.233852
			 0.999053 -0.014681 -0.040949
			 0.987196 -0.124217 -0.100074
			 0.908308 -0.376389 -0.182508
			 0.940702 -0.332748 -0.066022
			 0.682914  0.730485 -0.004420
			 0.921740 -0.086790 -0.377971
			 0.880241  0.279345 -0.383592
			 0.843179  0.064796 -0.533714
			 0.919907 -0.025701 -0.391293
			 0.960029 -0.076033 -0.269376
			 0.892554 -0.350768 -0.283388
			 0.901237 -0.321949 -0.290035
			 0.657359  0.729013 -0.190836
			-0.132914 -0.599621 -0.789169
			-0.389146  0.031618 -0.920633
			-0.492843 -0.010514 -0.870055
			-0.420865  0.016621 -0.906971
			-0.363793  0.058940 -0.929613
			-0.397890  0.045776 -0.916290
			-0.309552 -0.020994 -0.950651
			-0.247748  0.017103 -0.968674
			-0.186359  0.819692 -0.541642
			-0.823989 -0.547259 -0.146796
			-0.941678 -0.075279 -0.327987
			-0.923932 -0.113703 -0.365269
			-0.881348 -0.085782 -0.464615
			-0.856536  0.013668 -0.515907
			-0.874700  0.041112 -0.482918
			-0.881400  0.037234 -0.470901
			-0.891508  0.099043 -0.442045
			-0.499234  0.803980 -0.323080
			-0.469302 -0.754105  0.459436
			-0.816139 -0.217948  0.535178
			-0.949201 -0.157508  0.272414
			-0.968375 -0.138971  0.207212
			-0.974044 -0.060339  0.218170
			-0.972615 -0.016376  0.231846
			-0.967007 -0.064441  0.246464
			-0.970452  0.049649  0.236132
			-0.492585  0.869632  0.033184
			-0.356305 -0.231580  0.905217
			-0.576374 -0.196493  0.793211
			-0.688097 -0.144718  0.711041
			-0.652612 -0.102345  0.750748
			-0.588298 -0.106338  0.801622
			-0.548963 -0.159290  0.820528
			-0.525229  0.006416  0.850937
			-0.182256  0.878504  0.441603
			-0.046138 -0.189803  0.980738
			-0.035969 -0.122801  0.991779
			 0.069680 -0.090164  0.993486
			 0.223840 -0.168106  0.960019
			 0.236273 -0.217710  0.946983
			 0.212134 -0.234974  0.948570
			 0.291079 -0.104053  0.951024
			 0.336672 -0.932840 -0.128304
			 0.546339 -0.329283 -0.770120
			 0.528047  0.310895 -0.790260
			 0.486852  0.103406 -0.867342
			 0.494142 -0.001807 -0.869379
			 0.529405 -0.028647 -0.847886
			 0.590427 -0.249576 -0.767534
			 0.619876 -0.202332 -0.758166
			 0.396181  0.785951 -0.474681
			 0.043621  0.998231 -0.040410
			 0.222222 -0.717949 -0.659672
			 0.649003 -0.155061 -0.744816
			 0.546620  0.208051 -0.811124
			 0.619294  0.417304 -0.665080
			 0.564785  0.299675 -0.768903
			 0.518141  0.158672 -0.840448
			 0.598436  0.078914 -0.797275
			 0.662120  0.019130 -0.749154
			 0.626176  0.015687 -0.779524
			 0.460120 -0.006821 -0.887830
			 0.274981 -0.163588 -0.947430
			 0.229065 -0.309682 -0.922836
			 0.345772  0.774405 -0.529848
			 0.223350 -0.946732 -0.231976
			 0.877590 -0.445673 -0.176670
			 0.960450  0.167993 -0.222069
			 0.920443  0.369591 -0.127226
			 0.944919  0.262320 -0.195746
			 0.963239  0.095922 -0.250938
			 0.981162  0.001717 -0.193179
			 0.987611 -0.070756 -0.140066
			 0.991557 -0.095795 -0.087401
			 0.977905 -0.118346 -0.172323
			 0.883803 -0.329136 -0.332507
			 0.864034 -0.401393 -0.303857
			 0.777613  0.627066  0.045893
			-0.097793 -0.851392  0.515333
			 0.370805 -0.440224  0.817745
			 0.555711  0.245462  0.794313
			 0.566199  0.317533  0.760652
			 0.622603  0.011902  0.782447
			 0.538284 -0.116727  0.834641
			 0.353253 -0.134589  0.925796
			 0.260168 -0.107052  0.959611
			 0.282076 -0.160889  0.945805
			 0.271630 -0.262090  0.926027
			 0.194081 -0.377192  0.905571
			 0.130075 -0.310672  0.941575
			 0.235367  0.722251  0.650351
			-0.445391 -0.806225  0.389395
			-0.609974 -0.095403  0.786658
			-0.280195 -0.015642  0.959816
			-0.028429  0.024862  0.999287
			 0.025332 -0.126270  0.991672
			-0.247474 -0.154537  0.956491
			-0.419963 -0.109677  0.900890
			-0.448956 -0.069791  0.890824
			-0.444723 -0.057394  0.893827
			-0.466842 -0.109392  0.877549
			-0.533638 -0.239909  0.810971
			-0.639013 -0.197107  0.743513
			-0.374632  0.749854  0.545317
			-0.566350 -0.820961  0.072601
			-0.901683 -0.245068  0.356243
			-0.761397 -0.224911  0.608021
			-0.776315 -0.141546  0.614247
			-0.829065 -0.146875  0.539517
			-0.893042 -0.104135  0.437758
			-0.910798 -0.034593  0.411401
			-0.907427  0.015153  0.419936
			-0.918565  0.034479  0.393764
			-0.944058  0.011732  0.329571
			-0.965973 -0.056516  0.252395
			-0.969809 -0.001766  0.243857
			-0.530662  0.817652  0.223257
			-0.160821 -0.931835 -0.325302
			-0.713185 -0.554528 -0.428796
			-0.730309 -0.014852 -0.682956
			-0.774991  0.206613 -0.597243
			-0.825369  0.142504 -0.546313
			-0.861995  0.097413 -0.497469
			-0.868963  0.098053 -0.485066
			-0.833361  0.127716 -0.537771
			-0.797924  0.137945 -0.586761
			-0.802365  0.109579 -0.586688
			-0.829561  0.051459 -0.556040
			-0.870602  0.010592 -0.491873
			-0.513395  0.838903 -0.180742
			 0.229738 -0.692069 -0.684296
			 0.035976 -0.184433 -0.982186
			-0.008048  0.168932 -0.985595
			-0.020276  0.300278 -0.953636
			-0.002330  0.259756 -0.965671
			-0.039188  0.204680 -0.978044
			-0.054226  0.163102 -0.985118
			-0.028252  0.132071 -0.990838
			-0.103844  0.099789 -0.989575
			-0.269804  0.065470 -0.960687
			-0.372842  0.032279 -0.927333
			-0.411312 -0.071183 -0.908711
			-0.310273  0.771506 -0.555437
			 0.296636 -0.943682  0.146534
			 0.896516 -0.443001  0.003150
			 0.981908  0.181343 -0.054518
			 0.916285  0.368399  0.157175
			 0.902724  0.120131  0.413108
			 0.887496 -0.028799  0.459915
			 0.868941 -0.059328  0.491347
			 0.870753 -0.086217  0.484102
			 0.872776 -0.183814  0.452188
			 0.863980 -0.256691  0.433184
			 0.842448 -0.348562  0.410836
			 0.850819 -0.265460  0.453473
			 0.652297  0.651637  0.387140
			 0.143434  0.980486  0.134440
			-0.064249 -0.991643 -0.111875
			-0.895597  0.430082  0.113739
			 0.073540  0.628996  0.773922
			 0.879359  0.475560 -0.023878
			-0.070630  0.533556 -0.842810
			 0.484931 -0.539899  0.688005
			 0.942096  0.104469  0.318655
			 0.955456  0.245689  0.163527
			 0.099436 -0.217693  0.970939
			 0.995795  0.068645  0.060658
			 0.119372 -0.183632  0.975720
			 0.981858 -0.189333  0.010413
			 0.096681 -0.282249  0.954457
			 0.986643 -0.162174 -0.015364
			 0.175028 -0.227134  0.958006
			 0.869280 -0.425401  0.251765
			 0.864684 -0.297888 -0.404456
			 0.304041  0.299644 -0.904308
			 0.157800  0.367700 -0.916458
			 0.024086  0.189132 -0.981656
			-0.029820 -0.198971 -0.979552
			 0.018027 -0.320996 -0.946909
			 0.331543 -0.866991 -0.372029
			-0.748975 -0.612230 -0.253398
			-0.974610 -0.219568 -0.043872
			-0.992440 -0.099899  0.071292
			-0.971383 -0.191887  0.139980
			-0.961992 -0.226863  0.152003
			-0.062239  0.432561 -0.899454
			-0.820673  0.349245 -0.452243
			-0.900219  0.286431  0.327969
			 0.034833  0.317595  0.947587
			 0.936315  0.190432  0.295041
			 0.810446  0.335224 -0.480419
			-0.657594 -0.751118 -0.058239
			-0.508228 -0.774327 -0.376991
			 0.389411 -0.920508 -0.031986
			-0.018699 -0.882476  0.469985
			 0.232928 -0.758075 -0.609152
			 0.616708 -0.017989 -0.786987
			 0.893023 -0.141006  0.427349
			 0.772192  0.402191 -0.491895
			 0.847495  0.241390  0.472741
			 0.806111  0.174464 -0.565462
			 0.922940  0.076790  0.377206
			 0.865516 -0.018584 -0.500536
			 0.949229 -0.102063  0.297569
			 0.875704 -0.163643 -0.454273
			 0.928265 -0.267284  0.258617
			-0.469291 -0.584695 -0.661738
			-0.452151 -0.090122 -0.887377
			-0.234916  0.024205 -0.971714
			-0.156344  0.064949 -0.985565
			-0.051399  0.061006 -0.996813
			 0.021486 -0.034041 -0.999189
			-0.815299 -0.252967 -0.520860
			-0.776172 -0.073292 -0.626247
			-0.773279 -0.001044 -0.634065
			-0.789620  0.001538 -0.613594
			-0.826888 -0.094645 -0.554346
			-0.937728 -0.290109  0.191058
			-0.948719 -0.133261  0.286659
			-0.923886 -0.176132  0.339723
			-0.915916 -0.200922  0.347460
			-0.900991 -0.252598  0.352717
			 0.119067 -0.237665  0.964022
			 0.211617 -0.033840  0.976767
			 0.229761 -0.177407  0.956941
			 0.232602 -0.314648  0.920268
			 0.185700 -0.433211  0.881954
			 0.777571 -0.468279  0.419641
			 0.857370 -0.076865 -0.508929
			 0.881285  0.205207 -0.425708
			 0.787097  0.172324  0.592270
			 0.963192  0.116878 -0.242078
			 0.779742  0.128329  0.612808
			 0.997218  0.059430 -0.044991
			 0.844732  0.001536  0.535188
			 0.993587 -0.059041 -0.096435
			 0.888561 -0.104592  0.446676
			 0.930312 -0.329801 -0.160470
			 0.870605 -0.267554  0.412870
			 0.960526 -0.274129 -0.047354
			 0.859472 -0.200222  0.470340
			 0.629507  0.775183 -0.053038
			 0.485401  0.706525  0.514985
			 0.925160 -0.042431 -0.377198
			 0.852840  0.329144 -0.405374
			 0.835433  0.095243 -0.541276
			 0.919256  0.017713 -0.393262
			 0.963028 -0.022915 -0.268425
			 0.913239 -0.311484 -0.262625
			 0.920394 -0.281440 -0.271416
			 0.604146  0.759423 -0.241420
			 0.526208 -0.834729 -0.162276
			 0.394867 -0.916358 -0.066093
			 0.561811 -0.346381 -0.751258
			 0.498242  0.305787 -0.811326
			 0.476307  0.084408 -0.875219
			 0.492611 -0.023654 -0.869928
			 0.529959 -0.047241 -0.846706
			 0.605118 -0.264504 -0.750913
			 0.631536 -0.212876 -0.745551
			 0.338878  0.777879 -0.529213
			-0.088874 -0.663220 -0.743129
			-0.390180 -0.061040 -0.918713
			-0.490354 -0.109118 -0.864665
			-0.421076 -0.078094 -0.903657
			-0.367485 -0.031481 -0.929496
			-0.400277 -0.046773 -0.915200
			-0.307236 -0.111293 -0.945103
			-0.248538 -0.068357 -0.966207
			-0.244998  0.764966 -0.595653
			-0.774855 -0.622379 -0.110658
			-0.932142 -0.173310 -0.317923
			-0.911294 -0.214340 -0.351571
			-0.871265 -0.189058 -0.452940
			-0.854888 -0.087874 -0.511316
			-0.875267 -0.058680 -0.480067
			-0.881647 -0.062274 -0.467783
			-0.896422  0.002931 -0.443192
			-0.558194  0.742788 -0.369711
			-0.408124 -0.760330  0.505305
			-0.795594 -0.251452  0.551182
			-0.932968 -0.217595  0.286747
			-0.953658 -0.204440  0.220773
			-0.966203 -0.122916  0.226589
			-0.968415 -0.076412  0.237347
			-0.958931 -0.124538  0.254837
			-0.971514 -0.007369  0.236870
			-0.556547  0.830645 -0.016877
			 0.077179 -0.614838  0.784868
			-0.337339 -0.204607  0.918879
			-0.559054 -0.193163  0.806317
			-0.674513 -0.154012  0.722019
			-0.642741 -0.104759  0.758887
			-0.578538 -0.100373  0.809456
			-0.534812 -0.150670  0.831429
			-0.524044  0.024800  0.851330
			-0.247618  0.889747  0.383453
			-0.031990 -0.132374  0.990684
			-0.026663 -0.061388  0.997758
			 0.076335 -0.019365  0.996894
			 0.235621 -0.090486  0.967623
			 0.251631 -0.141717  0.957391
			 0.228629 -0.161246  0.960067
			 0.298034 -0.019514  0.954356
			-0.029605  0.994135 -0.104015
			 0.236791 -0.776489 -0.583948
			-0.149218 -0.968564 -0.199041
			-0.698704 -0.623734 -0.350384
			 0.040674 -0.309592 -0.949999
			-0.729820 -0.109065 -0.674883
			-0.009577  0.049157 -0.998745
			-0.777131  0.129956 -0.615775
			-0.022919  0.188720 -0.981764
			-0.826727  0.069996 -0.558233
			-0.004501  0.145759 -0.989310
			-0.862873  0.029409 -0.504564
			-0.040849  0.087055 -0.995366
			-0.869758  0.031658 -0.492461
			-0.055581  0.043034 -0.997526
			-0.834309  0.055952 -0.548451
			-0.029371  0.010544 -0.999513
			-0.798918  0.060621 -0.598376
			-0.104796 -0.023342 -0.994220
			-0.803214  0.031245 -0.594871
			-0.270421 -0.056804 -0.961065
			-0.829995 -0.025208 -0.557201
			-0.373084 -0.087837 -0.923630
			-0.870679 -0.059573 -0.488232
			-0.410333 -0.192525 -0.891381
			-0.524095  0.802589 -0.284912
			-0.319757  0.686980 -0.652544
			-0.557852 -0.811907  0.172067
			-0.897248 -0.215564  0.385329
			-0.757971 -0.162061  0.631835
			-0.774730 -0.075669  0.627748
			-0.827302 -0.091150  0.554313
			-0.891823 -0.060494  0.448321
			-0.910422  0.007893  0.413606
			-0.907439  0.060439  0.415814
			-0.918700  0.076978  0.387382
			-0.944099  0.045017  0.326574
			-0.965360 -0.035521  0.258492
			-0.969766  0.020060  0.243210
			-0.540283  0.832799  0.120580
			-0.442141 -0.755083  0.484108
			-0.608918 -0.004601  0.793220
			-0.280311  0.102148  0.954459
			-0.028543  0.151407  0.988059
			 0.026582 -0.004396  0.999637
			-0.245934 -0.040715  0.968431
			-0.418917 -0.003005  0.908019
			-0.448220  0.036669  0.893171
			-0.444227  0.049910  0.894523
			-0.465982 -0.006074  0.884773
			-0.530982 -0.149648  0.834064
			-0.636910 -0.114967  0.762318
			-0.385965  0.805614  0.449462
			-0.093542 -0.788549  0.607816
			 0.369160 -0.342126  0.864101
			 0.550659  0.356441  0.754801
			 0.559779  0.426521  0.710441
			 0.622432  0.117449  0.773811
			 0.539374 -0.009719  0.842010
			 0.354498 -0.018295  0.934878
			 0.261270  0.013554  0.965171
			 0.283108 -0.043521  0.958100
			 0.273118 -0.150504  0.950134
			 0.196818 -0.271977  0.941961
			 0.132728 -0.199548  0.970857
			 0.223098  0.798772  0.558740
			 0.295069 -0.920560  0.255938
			 0.895069 -0.442296  0.056797
			 0.979028  0.188052 -0.078355
			 0.907258  0.406441  0.108115
			 0.900586  0.184826  0.393425
			 0.887762  0.036921  0.458819
			 0.869502  0.009185  0.493843
			 0.871454 -0.019472  0.490091
			 0.873678 -0.124248  0.470372
			 0.864608 -0.201810  0.460137
			 0.842094 -0.298865  0.448951
			 0.851299 -0.207895  0.481736
			 0.645454  0.701014  0.303264
			 0.875625 -0.467854 -0.119974
			 0.957873  0.153637 -0.242642
			 0.911815  0.372388 -0.172974
			 0.939929  0.254245 -0.227802
			 0.962045  0.076389 -0.261981
			 0.981086 -0.013549 -0.193096
			 0.987981 -0.081652 -0.131249
			 0.992025 -0.100722 -0.075772
			 0.978332 -0.134905 -0.157057
			 0.883021 -0.371269 -0.287112
			 0.862377 -0.441205 -0.248283
			 0.773518  0.632692 -0.037019
			 0.225168 -0.968150 -0.109476
			 0.227317 -0.798928 -0.556813
			 0.648162 -0.246403 -0.720536
			 0.542927  0.116406 -0.831673
			 0.610366  0.350270 -0.710467
			 0.559780  0.216580 -0.799837
			 0.516403  0.062283 -0.854078
			 0.597616 -0.014018 -0.801660
			 0.661803 -0.069086 -0.746488
			 0.625942 -0.076727 -0.776086
			 0.460097 -0.115429 -0.880333
			 0.275010 -0.284969 -0.918239
			 0.228562 -0.431536 -0.872661
			 0.334449  0.698389 -0.632769
			 0.129235  0.991575  0.008811
			-0.055113 -0.998409  0.011914
			-0.811888  0.564608  0.148511
			 0.215233  0.632250  0.744268
			 0.937654  0.335186 -0.091952
			-0.041982  0.513863 -0.856844
			 0.440054 -0.587771  0.678880
			 0.965122 -0.031009  0.259957
			 0.989822  0.102042  0.099194
			 0.125688 -0.202352  0.971214
			 0.996627 -0.082065  0.000857
			 0.150972 -0.171782  0.973498
			 0.940971 -0.336258 -0.038783
			 0.112545 -0.266464  0.957251
			 0.948159 -0.310945 -0.065637
			 0.198167 -0.223630  0.954316
			 0.809414 -0.545517  0.217394
			 0.783361 -0.437341 -0.441678
			 0.288608  0.224065 -0.930860
			 0.153826  0.313024 -0.937205
			-0.008872  0.155269 -0.987832
			-0.120278 -0.220009 -0.968054
			-0.089413 -0.346975 -0.933603
			 0.173372 -0.917689 -0.357477
			-0.846730 -0.498086 -0.186971
			-0.997360 -0.069776  0.020116
			-0.989801  0.054518  0.131609
			-0.978553 -0.037773  0.202504
			-0.973810 -0.073280  0.215229
			-0.043811  0.387325 -0.920902
			-0.801612  0.376193 -0.464647
			-0.876952  0.360001  0.318361
			 0.064612  0.364610  0.928916
			 0.949405  0.146053  0.278028
			 0.825202  0.256985 -0.502991
			-0.703918 -0.710157 -0.013312
			-0.559798 -0.759413 -0.331540
			 0.330182 -0.943802  0.014735
			-0.069264 -0.853241  0.516896
			 0.178356 -0.802538 -0.569318
			 0.606279 -0.098967 -0.789070
			 0.886664 -0.174439  0.428249
			 0.791032  0.325577 -0.517946
			 0.865787  0.211867  0.453350
			 0.809843  0.092673 -0.579280
			 0.929706  0.037850  0.366353
			 0.857479 -0.100062 -0.504696
			 0.943871 -0.146190  0.296202
			 0.858924 -0.242913 -0.450825
			 0.912191 -0.311486  0.266241
			-0.511820 -0.588143 -0.626201
			-0.465954 -0.108395 -0.878144
			-0.242800 -0.012572 -0.969995
			-0.161832  0.022378 -0.986565
			-0.057503  0.011144 -0.998283
			 0.009125 -0.088420 -0.996042
			-0.834888 -0.228037 -0.500961
			-0.785624 -0.057025 -0.616071
			-0.778180  0.014453 -0.627875
			-0.794074  0.019198 -0.607518
			-0.836798 -0.071197 -0.542863
			-0.952087 -0.219697  0.212754
			-0.952294 -0.057351  0.299746
			-0.929705 -0.098682  0.354839
			-0.923225 -0.123464  0.363886
			-0.911490 -0.175764  0.371879
			 0.113733 -0.193356  0.974514
			 0.218875  0.004753  0.975741
			 0.227761 -0.140581  0.963515
			 0.221596 -0.279380  0.934260
			 0.166989 -0.396541  0.902702
			 0.777384 -0.443835  0.445740
			 0.857375 -0.106023 -0.503654
			 0.881250  0.180485 -0.436834
			 0.787145  0.205719  0.581449
			 0.963176  0.102779 -0.248453
			 0.779967  0.163072  0.604201
			 0.997225  0.056752 -0.048180
			 0.844889  0.032009  0.533984
			 0.993597 -0.064431 -0.092811
			 0.888630 -0.078977  0.451773
			 0.930268 -0.338520 -0.141443
			 0.870724 -0.243706  0.427138
			 0.960486 -0.276531 -0.031585
			 0.859494 -0.173266  0.480884
			 0.629518  0.770900 -0.097055
			 0.485458  0.734661  0.473925
			 0.925153 -0.063964 -0.374165
			 0.852796  0.305399 -0.423640
			 0.835360  0.064069 -0.545956
			 0.919272 -0.004800 -0.393594
			 0.963057 -0.038203 -0.266573
			 0.913245 -0.326041 -0.244297
			 0.920370 -0.296571 -0.254881
			 0.604169  0.744396 -0.284350
			 0.526052 -0.842735 -0.114310
			 0.394884 -0.918631 -0.013571
			 0.561823 -0.388679 -0.730263
			 0.498106  0.258923 -0.827556
			 0.476477  0.034254 -0.878519
			 0.492853 -0.073173 -0.867031
			 0.529931 -0.095493 -0.842647
			 0.605104 -0.307023 -0.734565
			 0.631570 -0.255130 -0.732139
			 0.338917  0.746427 -0.572697
			-0.088922 -0.704549 -0.704063
			-0.390224 -0.113323 -0.913719
			-0.490423 -0.158297 -0.856987
			-0.420785 -0.129452 -0.897876
			-0.367154 -0.084315 -0.926331
			-0.400295 -0.098836 -0.911041
			-0.307293 -0.165035 -0.937195
			-0.248543 -0.123336 -0.960736
			-0.244918  0.729820 -0.638261
			-0.774915 -0.627609 -0.074929
			-0.932144 -0.191113 -0.307543
			-0.911299 -0.233948 -0.338824
			-0.871284 -0.214532 -0.441408
			-0.854900 -0.116856 -0.505462
			-0.875245 -0.085815 -0.476006
			-0.881653 -0.088820 -0.463464
			-0.896437 -0.022288 -0.442611
			-0.558096  0.720620 -0.411384
			-0.408199 -0.730217  0.547866
			-0.795604 -0.219534  0.564640
			-0.933000 -0.200771  0.298667
			-0.953687 -0.191443  0.232013
			-0.966237 -0.109744  0.233115
			-0.968440 -0.062593  0.241259
			-0.958940 -0.109755  0.261509
			-0.971520  0.006171  0.236877
			-0.556499  0.828362 -0.064232
			 0.077200 -0.569063  0.818662
			-0.337209 -0.151846  0.929103
			-0.559093 -0.146867  0.815993
			-0.674639 -0.112542  0.729518
			-0.642849 -0.061226  0.763542
			-0.578573 -0.053975  0.813842
			-0.534901 -0.102958  0.838618
			-0.524107  0.073360  0.848487
			-0.247575  0.910207  0.332009