<?xml version="1.0"?>
<VTKFile type="PolyData" version="0.1" byte_order="LittleEndian" compressor="vtkZLibDataCompressor">
	<PolyData>
		<Piece NumberOfPoints="340" NumberOfVerts="0" NumberOfLines="0" NumberOfStrips="0" NumberOfPolys="675">
		<PointData Normals="Normals">
		<DataArray type="Float32" Name="Normals" NumberOfComponents="3" format="ascii">
			-0.648148  0.237093 -0.723665
			-0.386308 -0.174094 -0.905791
			-0.099641  0.234152 -0.967081
			 0.333053  0.319856 -0.887000
			 0.295662 -0.051285 -0.953915
			 0.907090  0.038351 -0.419186
			 0.792349 -0.070254 -0.606010
			 0.901687  0.093720 -0.422111
			 0.741275 -0.105967 -0.662783
			 0.851562 -0.153158 -0.501382
			 0.722730 -0.093549 -0.684770
			 0.169417 -0.099867 -0.980472
			-0.425466 -0.144060 -0.893434
			 0.889636 -0.116179 -0.441644
			 0.710408 -0.064690 -0.700811
			 0.934277 -0.017733 -0.356107
			 0.759835  0.004983 -0.650097
			 0.030387 -0.019788 -0.999342
			-0.519676 -0.022087 -0.854078
			 0.100540  0.050100 -0.993671
			-0.506154  0.066843 -0.859849
			 0.148233  0.095875 -0.984294
			-0.429474  0.121558 -0.894861
			 0.202013  0.130878 -0.970599
			-0.293855  0.149209 -0.944132
			 0.226958  0.109777 -0.967698
			-0.165945  0.122023 -0.978557
			 0.238090  0.079974 -0.967945
			-0.268463  0.085571 -0.959482
			 0.364822  0.121870 -0.923067
			-0.513925  0.108465 -0.850950
			 0.763492  0.047632 -0.644059
			 0.604726  0.071543 -0.793214
			 0.689953  0.078353 -0.719601
			 0.675282  0.101127 -0.730594
			 0.720148  0.077435 -0.689485
			 0.573632  0.219491 -0.789157
			-0.425956  0.217612 -0.878184
			 0.715116  0.302350 -0.630233
			-0.323693  0.352948 -0.877867
			 0.716438  0.420063 -0.557013
			 0.128760  0.470314 -0.873055
			 0.722564  0.462266 -0.514016
			 0.037000  0.432170 -0.901033
			 0.541497  0.639371 -0.545881
			-0.041433  0.422397 -0.905463
			 0.542078  0.499575 -0.675704
			-0.022144  0.426905 -0.904025
			 0.472418  0.795592 -0.379281
			 0.589333  0.756216 -0.284296
			 0.830736  0.485068 -0.273106
			 0.894232  0.296208 -0.335573
			 0.771868  0.233485 -0.591358
			 0.574349  0.155040 -0.803794
			 0.624005  0.117770 -0.772495
			 0.765276  0.149835 -0.626020
			 0.851666  0.259599 -0.455273
			 0.895742  0.291523 -0.335649
			 0.862691  0.409509 -0.296761
			 0.992627  0.113150 -0.043461
			 0.990576  0.120078  0.065882
			 0.996186  0.028298  0.082541
			 0.790581  0.612291 -0.009006
			 0.909921  0.391167 -0.137956
			 0.493571  0.366878 -0.788535
			 0.438360  0.556202 -0.706031
			 0.543447  0.402495 -0.736657
			 0.217451  0.121529 -0.968476
			 0.388531  0.056856 -0.919680
			 0.092630 -0.251718 -0.963357
			 0.075645 -0.320601 -0.944189
			-0.436290 -0.671626 -0.598806
			-0.066104 -0.750825 -0.657185
			-0.247628 -0.517891 -0.818822
			 0.345999 -0.065062 -0.935976
			 0.031889  0.114289 -0.992936
			-0.365120 -0.099267 -0.925653
			-0.464118  0.090682 -0.881119
			-0.736316 -0.389712 -0.553140
			-0.537628 -0.663245 -0.520636
			-0.819217 -0.107113 -0.563391
			-0.540301  0.069525 -0.838595
			-0.668453  0.178190 -0.722094
			 0.537342  0.817070  0.208951
			 0.675753  0.734825  0.058222
			 0.966724  0.241096 -0.085537
			 0.888158 -0.333847 -0.315789
			 0.132022  0.989351  0.061279
			-0.088443  0.996066  0.005452
			-0.223879  0.963108  0.149334
			-0.190880  0.899864  0.392185
			-0.084963  0.849218  0.521163
			 0.000695  0.909275  0.416196
			 0.121554  0.950927  0.284540
			 0.079485  0.975981  0.202841
			 0.352895  0.935404  0.022003
			 0.024685  0.981027 -0.192292
			-0.448685  0.870543 -0.202082
			-0.607057  0.789580  0.089697
			-0.518584  0.715247  0.468501
			-0.340689  0.592884  0.729671
			-0.009057  0.622652  0.782447
			 0.247829  0.723030  0.644832
			 0.347444  0.894877  0.280139
			 0.338996  0.915344 -0.217316
			-0.119515  0.910687 -0.395431
			-0.484625  0.747768 -0.453852
			-0.709437  0.475068 -0.520585
			-0.796529  0.536931 -0.277932
			-0.844224  0.534352 -0.041873
			-0.784669  0.422645  0.453504
			-0.492430  0.293857  0.819244
			-0.049727  0.287261  0.956561
			 0.250516  0.354854  0.900733
			 0.579759  0.788498  0.205307
			 0.627595  0.778450  0.011847
			-0.904118  0.139434 -0.403893
			-0.964736  0.229374 -0.129123
			-0.931393  0.078226  0.355510
			-0.598337 -0.029133  0.800715
			-0.103977 -0.063525  0.992549
			 0.383005  0.066112  0.921377
			 0.502587  0.581806  0.639459
			 0.733356  0.149782  0.663140
			 0.779190  0.506627  0.369042
			 0.798018  0.582760 -0.153485
			 0.773552  0.555329 -0.305330
			-0.948739 -0.183263 -0.257507
			-0.906464 -0.401484  0.130895
			-0.551093 -0.501579  0.666869
			 0.092050 -0.565458  0.819624
			 0.622271 -0.390725  0.678315
			 0.812743 -0.232705  0.534133
			 0.839226  0.029123  0.543003
			 0.956891 -0.216255  0.193891
			 0.923757  0.379871  0.048694
			 0.036107 -0.775572  0.630226
			 0.598637 -0.623216  0.503225
			 0.019200 -0.700273  0.713617
			 0.526180 -0.586369  0.615878
			 0.045696 -0.478036  0.877151
			 0.595906 -0.401840  0.695285
			 0.099646 -0.321487  0.941656
			 0.542684 -0.262888  0.797736
			 0.128374 -0.241878  0.961777
			 0.626591 -0.192974  0.755079
			 0.717148 -0.453455  0.529223
			 0.686895 -0.494435  0.532643
			 0.839382 -0.481965  0.251290
			 0.854878 -0.483903  0.187139
			 0.887216 -0.361023  0.287246
			 0.889561 -0.198673  0.411351
			-0.567183 -0.739915  0.361704
			-0.598898 -0.614632  0.513370
			-0.582347 -0.411372  0.701174
			-0.507306 -0.298919  0.808262
			-0.409752 -0.214035  0.886731
			-0.826715 -0.559942 -0.054847
			-0.916428 -0.368437  0.156246
			-0.926125 -0.221799  0.305121
			-0.899769 -0.145752  0.411305
			-0.830666 -0.112973  0.545189
			 0.807157 -0.352014 -0.473903
			 0.854350 -0.133115 -0.502360
			 0.667305  0.258130 -0.698622
			 0.832096 -0.296357 -0.468817
			 0.910785 -0.235687 -0.339003
			 0.985453 -0.119615 -0.120722
			 0.942020 -0.112440  0.316157
			 0.973934  0.043684 -0.222586
			-0.849796 -0.465565 -0.247176
			-0.945726 -0.270269 -0.180434
			-0.844315 -0.271394 -0.462036
			-0.944994  0.130322 -0.300005
			-0.826765 -0.238465 -0.509505
			-0.877871 -0.093889 -0.469604
			-0.989611 -0.130799 -0.059673
			-0.997258 -0.040424 -0.061984
			-0.999779  0.010427 -0.018279
			-0.876363  0.038891 -0.480079
			-0.853467  0.098006 -0.511848
			-0.694226  0.570033 -0.439446
			-0.402204  0.762330 -0.507036
			 0.996383 -0.016002 -0.083456
			 0.805690 -0.158823  0.570647
			 0.822250 -0.121989  0.555899
			 0.999397 -0.034243 -0.005833
			 0.284157 -0.210130  0.935468
			 0.416190 -0.163009  0.894547
			 0.773774 -0.099445  0.625608
			 0.999442 -0.027145  0.019450
			 0.794857 -0.081679  0.601275
			 0.990861  0.005794 -0.134766
			 0.766663 -0.098811  0.634401
			 0.995160  0.005485 -0.098114
			 0.713322 -0.087833  0.695311
			 0.729191  0.118042  0.674052
			 0.058620  0.108150  0.992405
			 0.079647 -0.113611  0.990328
			 0.293635 -0.144160  0.944985
			 0.310564 -0.122295  0.942653
			 0.345560 -0.121769  0.930463
			-0.425555 -0.138358  0.894293
			-0.366042 -0.118790  0.922985
			-0.457477 -0.119158  0.881201
			-0.523252 -0.126590  0.842723
			-0.740558 -0.111770  0.662632
			-0.374370 -0.165775  0.912341
			-0.865879 -0.074267  0.494710
			-0.881648 -0.067943  0.466991
			-0.843844 -0.088190  0.529292
			-0.876669 -0.084758  0.473569
			-0.914286 -0.087790  0.395442
			-0.981917 -0.105827  0.156969
			-0.983401 -0.176683  0.041301
			-0.861714 -0.084148  0.500368
			-0.998126 -0.048778 -0.036946
			-0.983118 -0.040564 -0.178418
			-0.985536  0.000491 -0.169464
			-0.994774 -0.010215 -0.101588
			-0.979208 -0.004551 -0.202809
			-0.997206  0.015055 -0.073166
			-0.997253  0.042138 -0.060913
			-0.786292  0.125879 -0.604896
			-0.695518  0.090453 -0.712793
			-0.712519  0.043803 -0.700284
			-0.797403  0.215947 -0.563485
			-0.877203  0.151851  0.455474
			-0.311884  0.256187  0.914930
			-0.838524  0.306479  0.450498
			-0.122190  0.501173  0.856677
			-0.852980  0.233400  0.466851
			 0.054547  0.488500  0.870857
			-0.690883 -0.141724  0.708940
			-0.107158  0.000142  0.994242
			-0.998589 -0.036522  0.038555
			-0.947072 -0.059719 -0.315418
			-0.943443 -0.181080 -0.277713
			-0.903766 -0.344866 -0.253524
			-0.884655 -0.465443  0.027366
			-0.868238 -0.394190  0.301292
			-0.998974 -0.005368 -0.044959
			-0.903227 -0.218386  0.369445
			-0.986139  0.037020 -0.161740
			-0.941687 -0.116076 -0.315836
			-0.902558 -0.111291  0.415936
			-0.741955 -0.379182 -0.552924
			-0.933177 -0.356299  0.047237
			-0.547470 -0.573056 -0.609823
			-0.691096 -0.677230 -0.252481
			-0.433361 -0.809517 -0.396082
			-0.246874 -0.860476 -0.445685
			-0.668391 -0.664203 -0.334795
			-0.290766 -0.955992 -0.039176
			-0.764108 -0.622917  0.167669
			-0.894830 -0.253268  0.367606
			-0.879245  0.038601  0.474803
			-0.813535 -0.119745  0.569053
			-0.849439 -0.512147  0.127116
			-0.745981 -0.624729 -0.230708
			-0.760538 -0.435085 -0.481959
			-0.823625  0.161883 -0.543539
			-0.984722  0.080091 -0.154625
			-0.777724  0.326028 -0.537449
			-0.818911  0.336334 -0.465043
			-0.888424  0.013087 -0.458837
			-0.992572 -0.120057 -0.019698
			-0.659404 -0.517105 -0.545700
			-0.753665 -0.651256 -0.088623
			-0.748528 -0.609846 -0.260373
			-0.996274 -0.071789  0.047804
			-0.987402  0.106117 -0.117369
			-0.261752 -0.909800 -0.322103
			-0.873256 -0.447551  0.192671
			-0.775309 -0.629391 -0.052562
			-0.947349 -0.302816 -0.104082
			-0.635873 -0.644158  0.425118
			-0.230825 -0.969139  0.086540
			 0.092395 -0.764851  0.637547
			-0.687467 -0.635850  0.350833
			-0.799060 -0.355956  0.484560
			 0.127855 -0.454138  0.881710
			-0.365366 -0.791510  0.489918
			-0.236772 -0.841472  0.485659
			 0.455373  0.335041  0.824853
			 0.752903  0.313732  0.578540
			 0.766641  0.403240  0.499659
			 0.564859  0.463662  0.682607
			 0.660783  0.391853  0.640170
			 0.849383  0.243585  0.468203
			 0.930972  0.280002  0.234286
			 0.870753  0.209055  0.445066
			 0.750947 -0.042927  0.658965
			 0.829585 -0.069042  0.554096
			 0.781608  0.410080  0.470024
			 0.859613  0.472237  0.195082
			 0.735361 -0.450208  0.506514
			 0.578308 -0.179478  0.795832
			 0.865352  0.086921  0.493570
			 0.243905 -0.657099  0.713254
			 0.677177 -0.419822  0.604302
			 0.551386 -0.710890  0.436587
			-0.074427 -0.717190  0.692892
			 0.248404 -0.834701  0.491498
			 0.993824 -0.075790 -0.081058
			 0.987549 -0.109872 -0.112589
			 0.946874  0.216809 -0.237536
			 0.980721  0.175756  0.085418
			 0.874608  0.443666  0.195502
			 0.776425  0.602570  0.184592
			 0.562500  0.615777  0.551736
			 0.784602  0.611504  0.102287
			 0.775932  0.608086  0.167813
			 0.724941  0.643087  0.246780
			 0.756141  0.651793 -0.058460
			 0.887120  0.460744 -0.027083
			 0.911012  0.392834  0.125456
			 0.922651  0.374193  0.093242
			 0.938631  0.312958  0.145012
			 0.801412  0.261277  0.538028
			 0.858410 -0.443690 -0.257433
			 0.992452 -0.007369 -0.122415
			 0.996706 -0.080013  0.013211
			 0.996923 -0.076109  0.018738
			 0.988335 -0.123280  0.089424
			 0.877972 -0.246027  0.410654
			 0.620327 -0.708983 -0.335466
			 0.682007 -0.703216  0.200881
			 0.801636 -0.597749  0.008768
			 0.824817 -0.545273 -0.149515
			 0.850995 -0.508082 -0.132891
			 0.512900 -0.764941 -0.389614
			 0.457612 -0.839645 -0.292555
			 0.330344 -0.911838 -0.243772
			 0.374567 -0.926398 -0.038551
			 0.241167 -0.963970 -0.112251
			 0.014687 -0.898115 -0.439516
			-0.087720 -0.836626 -0.540705
			 0.035621  0.790726 -0.611133
			-0.293157  0.661088 -0.690667
		</DataArray>
	</PointData>
	<Points>
		<DataArray type="Float32" NumberOfComponents="3" format="ascii">
			-0.009379  0.002407 -0.016773
			-0.004500 -0.006023 -0.018136
			 0.000749  0.004106 -0.019854
			 0.007371  0.005629 -0.018394
			 0.007295 -0.006733 -0.018998
			 0.016931  0.004615 -0.012195
			 0.014426 -0.005711 -0.013799
			 0.016655  0.003036 -0.005811
			 0.017003 -0.005494 -0.006675
			 0.015249 -0.015931 -0.007775
			 0.013023 -0.014170 -0.014642
			 0.006225 -0.013610 -0.018367
			-0.003270 -0.012337 -0.016925
			 0.013614 -0.023975 -0.007815
			 0.011553 -0.023938 -0.015156
			 0.012529 -0.036258 -0.008648
			 0.011067 -0.034244 -0.015742
			 0.005752 -0.023800 -0.017929
			-0.001020 -0.023368 -0.016848
			 0.004797 -0.033380 -0.018159
			-0.002232 -0.033246 -0.016618
			 0.003990 -0.055715 -0.019805
			-0.002301 -0.055807 -0.018793
			 0.003838 -0.074963 -0.022067
			-0.001971 -0.075193 -0.022091
			 0.004223 -0.103656 -0.026060
			-0.002587 -0.104019 -0.026610
			 0.003775 -0.129164 -0.028878
			-0.003560 -0.129879 -0.028455
			 0.004290 -0.160962 -0.030491
			-0.003341 -0.162504 -0.031444
			 0.010540 -0.130083 -0.026218
			 0.010398 -0.159889 -0.027311
			 0.010739 -0.104884 -0.022931
			 0.011071 -0.076662 -0.019499
			 0.010812 -0.055678 -0.016761
			 0.001245 -0.192766 -0.036664
			-0.004053 -0.192595 -0.039942
			 0.001169 -0.214823 -0.044614
			-0.002110 -0.214438 -0.048365
			 0.003067 -0.231943 -0.054207
			-0.000222 -0.231966 -0.056743
			 0.005486 -0.243822 -0.061340
			 0.002172 -0.244378 -0.063686
			 0.009044 -0.253273 -0.066120
			 0.007200 -0.254730 -0.067836
			 0.013313 -0.258449 -0.068836
			 0.009076 -0.257375 -0.069701
			 0.015959 -0.256481 -0.063510
			 0.011326 -0.253398 -0.062086
			 0.006944 -0.245854 -0.056026
			 0.005241 -0.234560 -0.050497
			 0.003908 -0.216004 -0.040467
			 0.004779 -0.192967 -0.034417
			 0.009324 -0.193047 -0.031637
			 0.008676 -0.216994 -0.036537
			 0.008768 -0.235637 -0.043532
			 0.010486 -0.246591 -0.047759
			 0.007956 -0.245915 -0.054008
			 0.013577 -0.251261 -0.042280
			 0.012813 -0.236300 -0.036015
			 0.011416 -0.218305 -0.031390
			 0.012622 -0.253331 -0.057256
			 0.011935 -0.252863 -0.050854
			 0.017295 -0.259741 -0.066213
			 0.021051 -0.260367 -0.064781
			 0.022904 -0.263599 -0.065963
			 0.019030 -0.265627 -0.066474
			 0.022690 -0.268049 -0.066793
			 0.019671 -0.273465 -0.066997
			 0.017266 -0.271135 -0.066432
			 0.011105 -0.277537 -0.061431
			 0.010129 -0.273118 -0.066175
			 0.009481 -0.270381 -0.069371
			 0.011491 -0.264722 -0.070662
			 0.011656 -0.261175 -0.070708
			 0.007429 -0.265663 -0.069772
			 0.005438 -0.259929 -0.068254
			 0.002610 -0.267189 -0.064127
			 0.007641 -0.272565 -0.065601
			-0.000355 -0.255464 -0.063363
			 0.002917 -0.254982 -0.066338
			-0.000621 -0.245157 -0.062517
			 0.017478 -0.256785 -0.059748
			 0.022203 -0.259125 -0.060057
			 0.025744 -0.263973 -0.061192
			 0.025682 -0.270237 -0.063717
			 0.002064  0.018311  0.004110
			-0.000630  0.018391  0.005055
			-0.002521  0.017824  0.009346
			-0.002342  0.016382  0.013725
			 0.000840  0.014687  0.016906
			 0.003638  0.015624  0.014906
			 0.004865  0.016733  0.011424
			 0.004395  0.017263  0.007576
			 0.008401  0.017012  0.003127
			 0.003078  0.017906 -0.000789
			-0.007097  0.015287  0.000074
			-0.008526  0.014738  0.008069
			-0.008346  0.011949  0.016312
			-0.003381  0.010033  0.021248
			 0.001828  0.010319  0.022036
			 0.007489  0.012165  0.019337
			 0.010116  0.015509  0.010831
			 0.011306  0.015115 -0.003660
			 0.002346  0.015369 -0.008493
			-0.004100  0.013789 -0.007399
			-0.010937  0.007716 -0.007123
			-0.013003  0.008263 -0.002081
			-0.014506  0.008993  0.005937
			-0.013795  0.006461  0.015613
			-0.007692  0.001536  0.024195
			 0.000351  0.001469  0.026596
			 0.009743  0.005216  0.023801
			 0.015777  0.012219  0.011659
			 0.014155  0.013537  0.000024
			-0.013761 -0.000152 -0.004094
			-0.017767  0.000987  0.003414
			-0.017045 -0.002091  0.013224
			-0.008785 -0.006577  0.024284
			-0.000747 -0.008338  0.027336
			 0.011699 -0.003005  0.025590
			 0.013472  0.008452  0.019848
			 0.018416  0.001916  0.019831
			 0.020919  0.006057  0.013578
			 0.017350  0.010528 -0.001515
			 0.017549  0.011188 -0.008109
			-0.017203 -0.003691  0.001388
			-0.017718 -0.008229  0.011484
			-0.009696 -0.014841  0.021506
			-0.000794 -0.015915  0.025356
			 0.014278 -0.010773  0.023153
			 0.019253 -0.006789  0.017453
			 0.022669 -0.000426  0.014431
			 0.027626 -0.006381  0.005697
			 0.026435  0.000917  0.002505
			 0.000765 -0.019028  0.021220
			 0.014075 -0.013184  0.018675
			 0.001710 -0.022796  0.016338
			 0.011483 -0.021060  0.013406
			 0.002741 -0.027382  0.012840
			 0.010860 -0.026716  0.009436
			 0.004062 -0.038096  0.007993
			 0.010178 -0.039531  0.005136
			 0.007199 -0.059463  0.001763
			 0.010492 -0.059341  0.000168
			 0.018740 -0.012279  0.012757
			 0.014252 -0.020055  0.009849
			 0.023724 -0.012652  0.006859
			 0.020677 -0.019298  0.004151
			 0.017510 -0.025877  0.002221
			 0.014253 -0.039367  0.000013
			-0.008992 -0.017603  0.017854
			-0.005933 -0.022736  0.012945
			-0.004496 -0.027998  0.010396
			-0.003038 -0.036761  0.007311
			-0.001676 -0.059121  0.001388
			-0.014856 -0.011108  0.010440
			-0.009895 -0.019793  0.006046
			-0.007955 -0.027268  0.004354
			-0.007328 -0.035932  0.001700
			-0.006614 -0.058836 -0.003136
			 0.024087 -0.009486 -0.001736
			 0.026393 -0.002916 -0.002528
			 0.025884 -0.000161 -0.003542
			 0.019756 -0.018619 -0.001805
			 0.017208 -0.025072 -0.002842
			 0.014239 -0.038327 -0.003656
			 0.012371 -0.058905 -0.002330
			 0.013805 -0.057510 -0.010666
			-0.014379 -0.007470  0.000923
			-0.010339 -0.016610 -0.000588
			-0.009176 -0.010677 -0.012091
			-0.012701 -0.000381 -0.011025
			-0.007609 -0.015676 -0.012218
			-0.006442 -0.024462 -0.011712
			-0.008525 -0.027254 -0.001960
			-0.008109 -0.035699 -0.003304
			-0.008021 -0.057889 -0.009355
			-0.005501 -0.034523 -0.012560
			-0.005894 -0.056935 -0.015348
			-0.007417  0.008760 -0.010556
			-0.001307  0.012866 -0.010345
			 0.014213 -0.078676 -0.014105
			 0.010777 -0.079086 -0.006347
			 0.010081 -0.106308 -0.012090
			 0.013019 -0.105203 -0.018459
			 0.006458 -0.079986 -0.002725
			 0.005320 -0.106707 -0.007382
			 0.008136 -0.132161 -0.015105
			 0.012313 -0.130990 -0.021277
			 0.008160 -0.161455 -0.018094
			 0.012559 -0.161047 -0.025453
			 0.007396 -0.195124 -0.022706
			 0.011213 -0.193757 -0.029939
			 0.006848 -0.220931 -0.026551
			 0.009629 -0.238503 -0.030148
			 0.002103 -0.240323 -0.023543
			 0.001251 -0.222797 -0.022547
			 0.002769 -0.195841 -0.018830
			 0.003997 -0.162211 -0.013895
			 0.003706 -0.132679 -0.010889
			-0.002307 -0.106845 -0.007426
			-0.002534 -0.133074 -0.011589
			-0.002168 -0.163034 -0.014937
			-0.001297 -0.195380 -0.019033
			-0.002338 -0.222780 -0.024086
			-0.002259 -0.078657 -0.002854
			-0.007217 -0.078130 -0.007326
			-0.007729 -0.106290 -0.012222
			-0.007217 -0.132776 -0.016074
			-0.006453 -0.163595 -0.020084
			-0.005534 -0.194739 -0.024935
			-0.005559 -0.220813 -0.032149
			-0.002843 -0.239383 -0.038326
			-0.001124 -0.240666 -0.025626
			-0.003082 -0.237428 -0.047535
			-0.005303 -0.219333 -0.037760
			-0.007299 -0.194987 -0.031741
			-0.008670 -0.162797 -0.025937
			-0.008848 -0.132083 -0.022382
			-0.009604 -0.105611 -0.018566
			-0.008582 -0.077117 -0.013791
			-0.006265 -0.075954 -0.019454
			-0.006756 -0.104366 -0.024394
			-0.006168 -0.131113 -0.026994
			-0.002372 -0.234081 -0.056830
			-0.000115 -0.250276 -0.023761
			 0.002421 -0.250151 -0.022080
			 0.000450 -0.258359 -0.019532
			 0.003450 -0.259114 -0.017207
			-0.000108 -0.264485 -0.015271
			 0.003321 -0.265323 -0.012383
			 0.001088 -0.273162 -0.011612
			 0.003341 -0.271727 -0.010185
			-0.001006 -0.269366 -0.019361
			-0.000381 -0.264019 -0.027168
			-0.000297 -0.257623 -0.031700
			 0.000192 -0.254686 -0.034346
			-0.000157 -0.251462 -0.039903
			-0.000464 -0.252350 -0.044316
			-0.003047 -0.250180 -0.056669
			-0.001423 -0.255821 -0.050173
			-0.000872 -0.245076 -0.062760
			-0.002276 -0.259005 -0.058562
			-0.002235 -0.260963 -0.053018
			 0.000490 -0.269768 -0.057760
			-0.001191 -0.270554 -0.054781
			 0.004181 -0.273097 -0.057923
			 0.002503 -0.276610 -0.055128
			 0.009365 -0.277160 -0.058203
			 0.007324 -0.279985 -0.055480
			 0.005851 -0.272478 -0.062498
			 0.010374 -0.280169 -0.048594
			 0.005564 -0.276489 -0.048427
			 0.003705 -0.272414 -0.047762
			 0.003681 -0.269208 -0.047039
			 0.007173 -0.262043 -0.044152
			 0.007279 -0.259295 -0.042469
			 0.005234 -0.256930 -0.039882
			 0.004690 -0.258656 -0.035657
			 0.005465 -0.264722 -0.033543
			 0.000889 -0.269730 -0.030110
			 0.004708 -0.270050 -0.036679
			 0.000306 -0.272922 -0.033516
			 0.002727 -0.276365 -0.038129
			-0.001009 -0.278048 -0.033037
			 0.005334 -0.282347 -0.038079
			 0.002833 -0.285647 -0.032146
			 0.006587 -0.277726 -0.044663
			 0.004275 -0.272595 -0.043042
			 0.008721 -0.264337 -0.040031
			 0.010986 -0.280842 -0.043980
			 0.001692 -0.277603 -0.029180
			 0.001460 -0.277594 -0.020883
			-0.000224 -0.273912 -0.019503
			 0.005627 -0.280691 -0.028812
			 0.005670 -0.281466 -0.020398
			 0.003021 -0.279250 -0.013758
			 0.001495 -0.278543 -0.014076
			 0.000027 -0.276459 -0.013541
			 0.004622 -0.277680 -0.013180
			 0.008335 -0.282534 -0.027553
			 0.009170 -0.289005 -0.030727
			 0.005268 -0.250383 -0.022259
			 0.010770 -0.254046 -0.027007
			 0.011695 -0.258578 -0.024782
			 0.007287 -0.258614 -0.019163
			 0.009499 -0.265803 -0.016061
			 0.013795 -0.265845 -0.022501
			 0.014078 -0.259669 -0.028345
			 0.013262 -0.255344 -0.029558
			 0.011195 -0.271543 -0.015046
			 0.013521 -0.271104 -0.022163
			 0.021185 -0.271130 -0.027354
			 0.017224 -0.266410 -0.028135
			 0.009584 -0.277089 -0.017562
			 0.012931 -0.275817 -0.023313
			 0.021752 -0.276860 -0.025706
			 0.012530 -0.279773 -0.024266
			 0.020826 -0.282288 -0.026030
			 0.008562 -0.281163 -0.019405
			 0.010275 -0.282237 -0.026960
			 0.015026 -0.287287 -0.027968
			 0.014123 -0.254885 -0.033760
			 0.013370 -0.253043 -0.037871
			 0.012183 -0.260972 -0.033841
			 0.011161 -0.260458 -0.039070
			 0.015873 -0.259202 -0.045424
			 0.014298 -0.258870 -0.053630
			 0.019698 -0.261809 -0.054591
			 0.017959 -0.263242 -0.050988
			 0.018190 -0.262472 -0.046100
			 0.015665 -0.265652 -0.038321
			 0.015770 -0.265803 -0.033926
			 0.021017 -0.270956 -0.033065
			 0.019740 -0.269909 -0.038464
			 0.021919 -0.266910 -0.045544
			 0.020185 -0.267224 -0.050804
			 0.023623 -0.265075 -0.055822
			 0.020893 -0.281182 -0.033576
			 0.022149 -0.275992 -0.031959
			 0.019816 -0.274144 -0.039157
			 0.022866 -0.271847 -0.044975
			 0.020408 -0.270219 -0.051195
			 0.023651 -0.269956 -0.055889
			 0.020950 -0.275262 -0.064750
			 0.021684 -0.275134 -0.057848
			 0.018842 -0.274682 -0.052680
			 0.021546 -0.276306 -0.046424
			 0.018630 -0.277649 -0.040116
			 0.016105 -0.285524 -0.035747
			 0.015208 -0.280446 -0.041737
			 0.015539 -0.280409 -0.048976
			 0.014677 -0.278056 -0.054279
			 0.016410 -0.278650 -0.060421
			 0.016119 -0.278390 -0.065350
			 0.009626 -0.287324 -0.036009
			 0.004858  0.012207 -0.014899
			-0.000278  0.010451 -0.014843
		</DataArray>
	</Points>
			<Polys>
				<DataArray type="Int32" Name="connectivity" format="ascii">
					1 0 2 
					2 3 4 
					3 5 6 
					5 7 8 
					9 10 6 
					10 11 4 
					11 12 1 
					9 13 14 
					13 15 16 
					14 17 11 
					17 18 12 
					17 19 20 
					19 21 22 
					21 23 24 
					23 25 26 
					25 27 28 
					27 29 30 
					27 31 32 
					27 25 33 
					25 23 34 
					23 21 35 
					21 19 16 
					19 17 14 
					29 36 37 
					36 38 39 
					38 40 41 
					40 42 43 
					42 44 45 
					44 46 47 
					46 44 49 
					44 42 50 
					42 40 51 
					40 38 52 
					38 36 53 
					53 36 29 
					32 54 53 
					54 55 52 
					52 55 56 
					56 57 58 
					58 50 51 
					57 56 60 
					56 55 61 
					62 49 50 
					58 57 63 
					63 57 59 
					64 48 65 
					65 66 67 
					67 66 68 
					68 69 70 
					70 69 71 
					71 72 70 
					70 72 73 
					73 74 70 
					70 74 67 
					67 74 64 
					74 75 46 
					46 75 47 
					75 76 77 
					76 75 74 
					74 73 76 
					78 77 76 
					76 73 78 
					78 73 79 
					77 78 76 
					78 80 81 
					81 80 82 
					43 45 81 
					81 45 77 
					77 45 47 
					49 62 83 
					84 65 48 
					84 85 66 
					85 86 68 
					48 64 46 
					72 79 73 
					63 62 58 
					92 93 94 
					95 96 87 
					96 97 88 
					97 98 89 
					98 99 90 
					99 100 91 
					91 100 101 
					101 102 92 
					102 103 93 
					103 95 94 
					104 105 96 
					105 106 97 
					106 107 108 
					108 109 98 
					109 110 99 
					110 111 100 
					111 112 101 
					112 113 102 
					114 115 95 
					95 115 104 
					107 116 108 
					116 117 109 
					117 118 110 
					118 119 111 
					119 120 112 
					120 121 113 
					102 113 122 
					122 114 103 
					122 123 124 
					122 113 121 
					115 114 124 
					116 127 117 
					127 128 118 
					128 129 119 
					129 130 120 
					130 131 121 
					131 132 123 
					132 133 124 
					133 134 135 
					135 125 124 
					130 136 137 
					136 138 139 
					138 140 141 
					140 142 143 
					142 144 145 
					137 139 147 
					147 139 141 
					137 146 132 
					132 131 137 
					132 146 133 
					146 148 134 
					146 147 149 
					147 141 150 
					141 143 151 
					129 152 136 
					152 153 138 
					153 154 140 
					154 155 142 
					155 156 144 
					128 157 152 
					157 158 153 
					158 159 154 
					159 160 155 
					160 161 156 
					163 164 135 
					162 134 148 
					149 165 162 
					149 150 166 
					150 151 167 
					167 151 168 
					151 143 145 
					169 15 167 
					125 135 164 
					157 170 171 
					128 127 170 
					127 116 172 
					172 116 173 
					170 172 174 
					175 176 171 
					176 159 158 
					159 176 177 
					178 161 160 
					177 176 175 
					116 107 181 
					107 106 182 
					182 106 105 
					184 185 186 
					183 169 168 
					168 145 184 
					145 144 187 
					188 185 184 
					185 189 190 
					189 191 192 
					191 193 194 
					193 195 61 
					195 196 60 
					196 195 198 
					195 193 199 
					193 191 200 
					191 189 201 
					189 185 188 
					202 203 201 
					203 204 200 
					204 205 199 
					205 206 198 
					188 187 207 
					187 144 156 
					161 208 207 
					208 209 202 
					210 211 204 
					211 212 205 
					212 213 206 
					213 214 215 
					214 213 217 
					213 212 218 
					212 211 219 
					211 210 220 
					210 209 221 
					209 208 222 
					208 161 178 
					179 180 178 
					180 223 222 
					223 224 221 
					224 225 220 
					30 37 218 
					37 39 217 
					202 209 210 
					215 197 198 
					215 227 228 
					227 229 230 
					229 231 232 
					231 233 234 
					235 233 231 
					231 229 236 
					229 227 237 
					227 215 238 
					215 214 239 
					214 216 240 
					216 241 242 
					216 226 243 
					241 244 245 
					244 246 247 
					246 248 249 
					248 250 251 
					250 248 252 
					248 246 78 
					246 244 80 
					244 241 82 
					253 254 249 
					254 255 247 
					255 256 245 
					245 256 257 
					245 257 242 
					257 258 240 
					258 259 239 
					259 260 238 
					238 260 237 
					260 261 236 
					236 261 262 
					261 263 264 
					263 265 266 
					265 267 268 
					267 265 270 
					265 263 271 
					271 263 261 
					261 260 271 
					260 259 258 
					271 258 257 
					257 256 270 
					254 253 272 
					262 264 266 
					266 273 262 
					273 274 275 
					235 236 262 
					276 277 274 
					277 278 279 
					279 280 275 
					280 233 235 
					279 278 281 
					277 276 282 
					276 268 283 
					276 273 266 
					255 270 256 
					270 255 254 
					197 228 284 
					284 285 196 
					285 284 287 
					284 228 230 
					232 288 287 
					288 289 286 
					290 291 285 
					291 60 196 
					292 288 232 
					292 293 289 
					293 294 295 
					290 286 289 
					281 296 292 
					296 297 293 
					297 298 294 
					297 299 300 
					297 296 301 
					296 281 278 
					299 302 303 
					299 301 277 
					302 277 282 
					283 303 302 
					277 301 278 
					60 291 304 
					304 305 60 
					60 305 59 
					304 291 290 
					304 290 306 
					306 307 304 
					304 307 305 
					307 308 59 
					308 309 63 
					62 63 309 
					83 309 310 
					310 309 311 
					309 308 312 
					308 307 313 
					307 306 314 
					306 290 295 
					294 315 314 
					315 316 313 
					316 317 312 
					317 318 311 
					318 319 310 
					319 85 84 
					300 320 321 
					315 294 298 
					321 322 316 
					322 323 317 
					323 324 318 
					324 325 319 
					325 86 85 
					86 325 327 
					325 324 328 
					324 323 329 
					323 322 330 
					322 321 320 
					303 331 320 
					331 332 330 
					332 333 329 
					333 334 328 
					334 335 327 
					335 336 326 
					268 267 337 
					267 269 272 
					331 303 283 
					332 331 337 
					333 332 272 
					334 333 253 
					335 334 251 
					336 335 250 
					194 61 55 
					192 194 54 
					190 192 32 
					186 190 31 
					183 186 33 
					169 183 34 
					15 169 35 
					30 219 220 
					28 30 225 
					28 225 224 
					24 26 224 
					22 24 223 
					20 22 180 
					82 226 41 
					226 39 41 
					216 217 39 
					86 326 69 
					71 252 79 
					79 252 78 
					69 326 336 
					69 336 71 
					166 167 15 
					165 166 13 
					162 165 9 
					163 162 8 
					8 164 163 
					164 8 7 
					18 20 179 
					175 174 12 
					1 12 174 
					0 1 172 
					125 164 7 
					126 125 7 
					181 0 173 
					338 339 182 
					338 105 104 
					3 338 126 
					3 2 339 
					181 182 339 
					0 181 339 
					124 125 115 
					126 104 115 
					162 163 134 
					1 2 4 
					4 3 6 
					6 5 8 
					8 9 6 
					6 10 4 
					4 11 1 
					10 9 14 
					14 13 16 
					10 14 11 
					11 17 12 
					18 17 20 
					20 19 22 
					22 21 24 
					24 23 26 
					26 25 28 
					28 27 30 
					29 27 32 
					31 27 33 
					33 25 34 
					34 23 35 
					35 21 16 
					16 19 14 
					30 29 37 
					37 36 39 
					39 38 41 
					41 40 43 
					43 42 45 
					45 44 47 
					48 46 49 
					49 44 50 
					50 42 51 
					51 40 52 
					52 38 53 
					29 32 53 
					53 54 52 
					51 52 56 
					51 56 58 
					59 57 60 
					60 56 61 
					58 62 50 
					64 65 67 
					67 68 70 
					64 74 46 