<?xml version="1.0"?>
<VTKFile type="PolyData" version="0.1" byte_order="LittleEndian" compressor="vtkZLibDataCompressor">
	<PolyData>
		<Piece NumberOfPoints="122" NumberOfVerts="0" NumberOfLines="0" NumberOfStrips="0" NumberOfPolys="246">
		<PointData Normals="Normals">
		<DataArray type="Float32" Name="Normals" NumberOfComponents="3" format="ascii">
			-0.276918  0.501587 -0.819590
			-0.446236 -0.136425 -0.884455
			-0.296721 -0.571012 -0.765442
			 0.239887 -0.568273 -0.787096
			 0.165255  0.271816 -0.948054
			 0.211288  0.649015 -0.730847
			-0.053303  0.746139 -0.663654
			 0.420172 -0.128719 -0.898269
			-0.636910 -0.544085 -0.546184
			-0.025668 -0.170427 -0.985036
			-0.280260 -0.470000 -0.836991
			-0.702790 -0.682357 -0.201186
			-0.362943 -0.864781 -0.347026
			 0.851503  0.026240 -0.523693
			 0.968626 -0.000255 -0.248521
			 0.403977 -0.874258 -0.269214
			-0.363282 -0.663035  0.654531
			 0.155986 -0.280730  0.947027
			 0.742405  0.236451 -0.626838
			 0.282184 -0.037992 -0.958608
			-0.016446 -0.528097 -0.849025
			-0.264333 -0.670709 -0.693021
			 0.875888 -0.474391 -0.088165
			-0.375934 -0.848114 -0.373331
			-0.317027 -0.704754 -0.634677
			 0.092241 -0.538174 -0.837771
			-0.076746 -0.996905 -0.017059
			-0.024915 -0.076973 -0.996722
			-0.133995 -0.088509 -0.987022
			 0.973776 -0.227069 -0.014176
			 0.860977  0.500571  0.090257
			 0.858313  0.321266  0.400108
			 0.812805  0.048661 -0.580500
			 0.536825  0.781311  0.318390
			-0.251150 -0.213885  0.944022
			 0.800860 -0.214535  0.559105
			 0.920301  0.256424 -0.295453
			-0.692724 -0.641596  0.329375
			-0.792810  0.454741  0.405786
			 0.725066 -0.583117 -0.366406
			-0.350482 -0.481836 -0.803117
			-0.435143  0.075925  0.897154
			-0.791066  0.458817  0.404599
			-0.661533  0.446329  0.602632
			 0.088912  0.249965  0.964164
			 0.270377  0.395991  0.877546
			 0.928010 -0.245421 -0.280295
			 0.609035 -0.147482 -0.779311
			 0.014547 -0.479582 -0.877377
			 0.855700 -0.475679 -0.203731
			-0.856817 -0.308655 -0.413034
			 0.066203 -0.090835 -0.993663
			-0.734316  0.091447 -0.672620
			 0.579184  0.651487 -0.490010
			-0.537210  0.344390  0.769936
			 0.032772 -0.486116 -0.873280
			 0.162282 -0.846334 -0.507330
			 0.219789 -0.960247 -0.172100
			-0.098059 -0.838196 -0.536481
			 0.590028 -0.610914 -0.527874
			 0.430887 -0.806425 -0.404989
			 0.032018 -0.812743 -0.581742
			-0.660950  0.266621 -0.701469
			 0.670592 -0.637055  0.380089
			-0.565674 -0.270799 -0.778897
			 0.707336  0.336742  0.621516
			-0.141587  0.480174  0.865671
			-0.724574  0.215129  0.654761
			 0.584098 -0.787770 -0.195574
			-0.481907 -0.217699  0.848748
			-0.055253  0.866794 -0.495595
			 0.376487  0.847737  0.373630
			-0.558993  0.432401 -0.707500
			-0.943299  0.005640  0.331897
			-0.787554  0.213287 -0.578159
			 0.524692 -0.076668  0.847833
			-0.909769  0.067576 -0.409578
			 0.235884 -0.903282 -0.358386
			-0.809326 -0.587266 -0.010482
			 0.668600  0.244987  0.702108
			 0.332691 -0.774693 -0.537743
			 0.858366  0.102060  0.502783
			-0.348227 -0.782149 -0.516703
			-0.730456 -0.325912 -0.600179
			-0.657053 -0.052879 -0.751987
			-0.611324 -0.562960 -0.556200
			 0.311680  0.114645  0.943245
			 0.201252 -0.144534  0.968818
			-0.279168 -0.870430 -0.405485
			 0.741652  0.094555  0.664087
			 0.714295  0.560515  0.419054
			 0.749508  0.468877  0.467325
			 0.723588  0.518643  0.455446
			 0.741899  0.194187 -0.641776
			-0.296458 -0.285021 -0.911524
			-0.501015  0.051968 -0.863877
			-0.739385  0.068727 -0.669766
			-0.503286  0.000924 -0.864119
			-0.442192 -0.233708 -0.865937
			 0.139915 -0.127227  0.981956
			 0.447366 -0.098822  0.888875
			-0.267158 -0.708786  0.652878
			-0.844133 -0.212457  0.492242
			-0.757245 -0.271579 -0.593991
			 0.606890  0.134080  0.783394
			 0.307896  0.844882 -0.437463
			-0.241651  0.860237 -0.448995
			-0.407112  0.910462 -0.072935
			 0.304726  0.676271  0.670671
			 0.580421  0.601974 -0.548397
			-0.693659  0.312240 -0.649110
			-0.936898  0.156677 -0.312529
			-0.740471  0.643392  0.194291
			-0.702915 -0.657217  0.271984
			 0.066658 -0.186801  0.980134
			 0.118715  0.273114  0.954629
			-0.930710 -0.300548 -0.208444
			 0.054967  0.536130  0.842344
			-0.380645  0.846418  0.372405
			-0.834972 -0.054050  0.547631
			-0.615076  0.352084  0.705492
			-0.851662 -0.471212  0.229415
		</DataArray>
	</PointData>
	<Points>
		<DataArray type="Float32" NumberOfComponents="3" format="ascii">
			-0.044327 -0.080850 -0.054677
			-0.045322 -0.072010 -0.052929
			-0.029819 -0.076501 -0.068863
			-0.034255 -0.084908 -0.061013
			-0.059127 -0.078011 -0.051587
			-0.062600 -0.083971 -0.057797
			-0.053206 -0.085034 -0.059938
			-0.066647 -0.093034 -0.065978
			-0.042967 -0.062222 -0.062107
			-0.055024 -0.068663 -0.051879
			-0.051217 -0.063678 -0.053320
			-0.035282 -0.057528 -0.079741
			-0.038811 -0.055471 -0.094431
			-0.031418 -0.051766 -0.087808
			-0.025297 -0.071682 -0.060148
			-0.007545 -0.088843 -0.018857
			-0.035677 -0.082371 -0.050467
			-0.061014 -0.087158 -0.045616
			-0.070805 -0.077244 -0.060373
			-0.062172 -0.069728 -0.051929
			-0.078097 -0.091478 -0.074637
			-0.084540 -0.093541 -0.064794
			-0.076817 -0.104660 -0.044220
			-0.048283 -0.054949 -0.066246
			-0.050719 -0.058978 -0.057932
			-0.060491 -0.061737 -0.054657
			-0.051734 -0.048677 -0.085567
			-0.062716 -0.052389 -0.099876
			-0.052851 -0.035891 -0.095170
			-0.022260 -0.035255 -0.096690
			-0.029869 -0.054046 -0.063728
			-0.034961 -0.044478 -0.077175
			-0.015992 -0.078453 -0.037371
			-0.025342 -0.066449 -0.041354
			-0.027254 -0.106601  0.000583
			 0.000010 -0.083726 -0.004923
			 0.000000 -0.079469 -0.026656
			-0.033729 -0.075291 -0.043025
			-0.036188 -0.073046 -0.035638
			-0.025952 -0.110440 -0.005670
			-0.037579 -0.099974 -0.017788
			-0.046114 -0.064378 -0.050000
			-0.108060 -0.072228 -0.042708
			-0.108512 -0.088166 -0.051595
			-0.077588 -0.043167 -0.059939
			-0.047115 -0.040845 -0.058661
			-0.075574 -0.066825 -0.066582
			-0.069460 -0.066047 -0.054626
			-0.084704 -0.074215 -0.085320
			-0.079861 -0.062776 -0.083072
			-0.089841 -0.078409 -0.067783
			-0.092707 -0.101931 -0.064757
			-0.094825 -0.075459 -0.059127
			-0.071467 -0.116395 -0.035196
			-0.114270 -0.103318 -0.043711
			-0.097672 -0.117728 -0.061403
			-0.088941 -0.130816 -0.045117
			-0.060880 -0.050643 -0.073063
			-0.056570 -0.054964 -0.060940
			-0.070113 -0.060373 -0.058863
			-0.064099 -0.055428 -0.060779
			-0.077804 -0.060868 -0.093843
			-0.079371 -0.043451 -0.085611
			-0.020766 -0.012688 -0.106588
			-0.058845 -0.015489 -0.094861
			-0.030136 -0.023374 -0.093810
			-0.022294 -0.080640 -0.002346
			-0.029246 -0.091680 -0.001081
			-0.044549 -0.127827 -0.023459
			-0.079997 -0.126794 -0.030146
			-0.039082 -0.105622 -0.017475
			-0.002515 -0.076525 -0.007104
			-0.101320 -0.083184 -0.058633
			-0.086209 -0.025934 -0.061845
			-0.113492 -0.094068 -0.058714
			-0.076923 -0.000898 -0.053148
			-0.088650 -0.062281 -0.076225
			-0.064376 -0.133792 -0.031678
			-0.113448 -0.115644 -0.050164
			-0.057751  0.022653 -0.093126
			-0.007194 -0.014923 -0.123270
			-0.000000  0.000000 -0.120833
			-0.025767 -0.013557 -0.111765
			-0.050796  0.037341 -0.118911
			-0.075179  0.015460 -0.072247
			-0.094028 -0.020262 -0.063989
			-0.091164  0.009621 -0.045500
			-0.095802 -0.005519 -0.040828
			-0.110692 -0.024093 -0.051881
			-0.080792  0.031718 -0.057625
			-0.075767  0.081005 -0.076435
			-0.032203  0.042817 -0.117986
			-0.011673  0.020720 -0.123144
			-0.003795  0.011367 -0.129272
			-0.022141  0.017064 -0.132168
			-0.049975  0.045190 -0.127943
			-0.074054  0.072924 -0.095217
			-0.125581  0.031049 -0.054190
			-0.099992  0.057224 -0.060352
			-0.112670  0.004130 -0.047053
			-0.106515  0.024731 -0.040493
			-0.120638 -0.019939 -0.044479
			-0.125632 -0.010078 -0.042406
			-0.126153  0.001275 -0.050133
			-0.084582  0.052767 -0.050023
			-0.051691  0.065471 -0.113834
			-0.072556  0.080010 -0.092479
			-0.092867  0.080280 -0.065454
			-0.085418  0.076531 -0.060986
			-0.022800  0.036117 -0.131464
			-0.109011  0.066410 -0.060971
			-0.136826  0.027100 -0.042425
			-0.122957  0.056362 -0.047167
			-0.129456  0.005228 -0.042604
			-0.124117  0.016544 -0.030060
			-0.118317  0.036791 -0.035422
			-0.137926  0.016807 -0.040577
			-0.101838  0.064646 -0.047068
			-0.105080  0.071715 -0.055333
			-0.136949  0.015755 -0.035222
			-0.134522  0.032374 -0.036368
			-0.133523  0.006379 -0.036939
		</DataArray>
	</Points>
			<Polys>
				<DataArray type="Int32" Name="connectivity" format="ascii">
					0 1 2 
					2 3 0 
					4 1 0 
					4 0 5 
					0 6 5 
					7 0 3 
					3 6 0 
					1 8 2 
					1 9 10 
					8 1 10 
					1 4 9 
					2 8 11 
					11 12 2 
					12 13 2 
					14 2 13 
					14 3 2 
					15 3 14 
					3 15 16 
					7 3 17 
					17 3 16 
					6 3 7 
					5 18 4 
					4 18 19 
					4 19 9 
					7 18 5 
					6 7 5 
					20 18 7 
					7 21 20 
					7 17 22 
					21 7 22 
					11 8 23 
					8 10 24 
					23 8 24 
					9 25 10 
					19 25 9 
					10 25 24 
					12 11 26 
					26 11 23 
					26 27 12 
					12 27 13 
					13 28 29 
					13 27 28 
					13 30 14 
					31 30 13 
					29 31 13 
					14 32 15 
					14 30 33 
					32 14 33 
					34 15 35 
					15 32 36 
					37 15 38 
					16 15 37 
					35 15 36 
					15 39 40 
					15 34 39 
					15 40 38 
					41 17 16 
					37 41 16 
					42 43 17 
					42 17 44 
					43 22 17 
					45 17 41 
					44 17 45 
					18 46 47 
					18 47 19 
					20 48 18 
					18 49 46 
					48 49 18 
					47 25 19 
					20 50 48 
					20 21 50 
					21 51 52 
					21 52 50 
					21 22 51 
					53 22 54 
					43 54 22 
					55 22 56 
					56 22 53 
					51 22 55 
					26 23 57 
					23 24 58 
					57 23 58 
					24 25 58 
					59 60 25 
					58 25 60 
					59 25 47 
					61 26 57 
					27 26 61 
					27 61 62 
					27 62 28 
					29 28 63 
					63 28 64 
					64 28 62 
					31 29 65 
					63 65 29 
					45 30 31 
					33 30 45 
					45 31 65 
					36 32 33 
					36 33 38 
					38 33 41 
					33 45 41 
					35 66 34 
					67 34 66 
					38 40 34 
					38 34 67 
					34 68 39 
					68 34 69 
					70 69 34 
					70 34 40 
					35 71 66 
					71 35 36 
					71 36 38 
					38 41 37 
					67 66 38 
					66 71 38 
					39 70 40 
					39 68 70 
					72 43 42 
					42 52 72 
					73 42 44 
					42 73 52 
					74 43 72 
					54 43 74 
					44 45 73 
					65 75 45 
					45 75 73 
					47 46 59 
					59 46 60 
					49 60 46 
					48 61 49 
					61 48 76 
					48 50 76 
					57 60 49 
					49 61 57 
					52 76 50 
					52 51 72 
					51 74 72 
					51 55 74 
					52 73 76 
					53 54 69 
					53 69 70 
					77 56 53 
					53 68 77 
					68 53 70 
					74 78 54 
					54 78 69 
					55 56 78 
					55 78 74 
					56 69 78 
					77 69 56 
					60 57 58 
					61 76 62 
					73 64 62 
					73 62 76 
					63 79 65 
					63 80 81 
					81 79 63 
					82 80 63 
					82 63 64 
					83 82 64 
					84 83 64 
					84 64 85 
					73 85 64 
					65 79 75 
					77 68 69 
					73 75 85 
					75 86 87 
					88 75 87 
					85 75 88 
					89 75 79 
					75 89 86 
					89 79 90 
					91 79 92 
					90 79 91 
					79 81 92 
					93 81 80 
					82 94 80 
					80 94 93 
					92 81 93 
					94 82 83 
					94 83 95 
					83 84 96 
					83 96 95 
					84 97 98 
					84 98 96 
					97 84 85 
					97 85 88 
					86 99 87 
					89 100 86 
					100 99 86 
					101 88 87 
					101 87 102 
					87 99 102 
					103 88 102 
					102 88 101 
					88 103 97 
					90 104 89 
					89 104 100 
					90 91 105 
					106 90 105 
					107 90 106 
					90 107 108 
					108 104 90 
					91 92 109 
					91 109 105 
					109 92 93 
					109 93 94 
					109 94 95 
					105 109 95 
					105 95 96 
					106 105 96 
					107 96 110 
					96 98 110 
					106 96 107 
					98 97 110 
					97 103 111 
					110 97 112 
					97 111 112 
					113 102 99 
					114 99 100 
					113 99 114 
					104 115 100 
					100 115 114 
					113 103 102 
					116 103 113 
					111 103 116 
					117 104 108 
					115 104 117 
					118 108 107 
					110 118 107 
					117 108 118 
					110 112 118 
					111 119 120 
					112 111 120 
					116 119 111 
					112 117 118 
					112 120 115 
					115 117 112 
					114 121 113 
					113 121 114 
					116 113 121 
					114 119 121 
					114 120 119 
					115 120 114 
					121 119 116 
				</DataArray>
				<DataArray type="Int32" Name="offsets" format="ascii">
					3 6 9 12 15 18 21 24 27 30 33 36 39 42 45 48 51 54 57 60 63 66 69 72 75 78 81 84 87 90 93 96 99 102 105 108 111 114 117 120 123 126 129 132 135 138 141 144 147 150 153 156 159 162 165 168 171 174 177 180 183 186 189 192 195 198 201 204 207 210 213 216 219 222 225 228 231 234 237 240 243 246 249 252 255 258 261 264 267 270 273 276 279 282 285 288 291 294 297 300 303 306 309 312 315 318 321 324 327 330 333 336 339 342 345 348 351 354 357 360 363 366 369 372 375 378 381 384 387 390 393 396 399 402 405 408 411 414 417 420 423 426 429 432 435 438 441 444 447 450 453 456 459 462 465 468 471 474 477 480 483 486 489 492 495 498 501 504 507 510 513 516 519 522 525 528 531 534 537 540 543 546 549 552 555 558 561 564 567 570 573 576 579 582 585 588 591 594 597 600 603 606 609 612 615 618 621 624 627 630 633 636 639 642 645 648 651 654 657 660 663 666 669 672 675 678 681 684 687 690 693 696 699 702 705 708 711 714 717 720 723 726 729 732 735 738 
				</DataArray>
			</Polys>
		</Piece>
	</PolyData>
</VTKFile>
