<?xml version="1.0"?>
<VTKFile type="PolyData" version="0.1" byte_order="LittleEndian" compressor="vtkZLibDataCompressor">
	<PolyData>
		<Piece NumberOfPoints="56" NumberOfVerts="0" NumberOfLines="0" NumberOfStrips="0" NumberOfPolys="63">
		<PointData Normals="Normals">
		<DataArray type="Float32" Name="Normals" NumberOfComponents="3" format="ascii">
			-0.036247  0.159717  0.986497
			 0.577233  0.180069  0.796478
			 0.845414  0.246427  0.473866
			 0.350166  0.643191  0.680947
			-0.724391  0.325737  0.607580
			-0.782792  0.529974  0.326134
			-0.873542 -0.177127  0.453377
			-0.089853 -0.545458  0.833308
			 0.764623 -0.254144  0.592252
			 0.968582  0.081721  0.234885
			 0.956913  0.147255  0.250266
			 0.999123 -0.034040  0.024388
			 0.956851  0.060756  0.284155
			 0.955443  0.189975  0.225917
			 0.464126  0.871392 -0.158943
			-0.726332  0.652020 -0.217512
			-0.950160  0.280210  0.136665
			-0.962067  0.203296  0.181928
			-0.963287  0.264659 -0.045090
			-0.971667  0.233355 -0.037537
			-0.969633  0.009677 -0.244373
			-0.518565 -0.839685 -0.161307
			 0.382589 -0.922616  0.049053
			 0.876104 -0.478156 -0.061715
			 0.994899 -0.100193  0.011693
			 0.980396 -0.014638  0.196491
			 0.836124  0.290920  0.465041
			 0.960835  0.181535  0.209385
			 0.850451  0.259933 -0.457349
			-0.581356  0.308448 -0.752917
			-0.926683  0.195785 -0.320822
			-0.938137  0.241121  0.248515
			-0.974318  0.104904  0.199246
			-0.920301  0.367757 -0.133419
			-0.967547  0.209678 -0.141025
			-0.918689  0.306388 -0.249273
			-0.869350  0.213082 -0.445899
			-0.900110  0.379537 -0.213903
			-0.926267  0.058927 -0.372233
			-0.323651 -0.563576 -0.760021
			 0.659678 -0.561347 -0.499714
			 0.932358 -0.308047 -0.189251
			 0.991241 -0.122097  0.050334
			 0.964206 -0.259530 -0.054317
			 0.924338  0.016211  0.381229
			 0.991791 -0.121513 -0.039823
			 0.753317 -0.259407 -0.604336
			-0.373522 -0.039429 -0.926783
			-0.930960  0.251205 -0.264970
			-0.857190  0.338251 -0.388346
			-0.891924  0.354691 -0.280474
			-0.820532  0.450218 -0.352180
			-0.903504  0.252418 -0.346360
			-0.350061 -0.045215 -0.935635
			 0.682841 -0.237055 -0.691038
			 0.921685 -0.271127 -0.277465
		</DataArray>
	</PointData>
	<Points>
		<DataArray type="Float32" NumberOfComponents="3" format="ascii">
			 0.013842  0.004139  0.012170
			 0.014669  0.003599  0.011627
			 0.014595  0.010687  0.009675
			 0.012582  0.016993  0.008759
			 0.004262  0.004231  0.010638
			 0.006614  0.013044  0.008999
			-0.001332 -0.005896  0.008342
			 0.010806 -0.006431  0.011461
			 0.014066 -0.005981  0.012678
			 0.015798  0.003232  0.010196
			 0.015193  0.006519  0.009187
			 0.015102 -0.003777  0.010893
			 0.015728  0.006434  0.007402
			 0.015448  0.010752  0.006705
			 0.014471  0.016239  0.003715
			 0.004774  0.014314  0.003524
			 0.004156  0.004000  0.008516
			 0.004308  0.008712  0.008434
			-0.001125 -0.006148  0.004394
			 0.003945  0.010435  0.004138
			-0.000601 -0.007465  0.002338
			-0.000566 -0.009448  0.002000
			 0.013957 -0.007964  0.007566
			 0.015065 -0.007013  0.008834
			 0.014668 -0.005034  0.008769
			 0.015692  0.001447  0.007803
			 0.016668  0.005421  0.004458
			 0.016343  0.008446  0.001961
			 0.016841  0.012970 -0.003882
			 0.007742  0.009496 -0.005940
			 0.004832  0.007674 -0.001193
			 0.003473  0.003622  0.005144
			 0.003520  0.005551  0.004812
			-0.000304 -0.002150  0.003219
			 0.003338  0.006405  0.002664
			 0.000860 -0.001340  0.002168
			 0.004021  0.006087  0.001512
			 0.001006 -0.001285  0.000851
			-0.000616 -0.006789 -0.000281
			 0.002940 -0.010443 -0.002368
			 0.009907 -0.008192  0.000053
			 0.014823 -0.005522  0.005467
			 0.015444 -0.002996  0.007269
			 0.015453  0.000005  0.006306
			 0.017176  0.003222  0.005749
			 0.016066  0.002890  0.002361
			 0.015247  0.003614 -0.000136
			 0.005427  0.003704 -0.004399
			 0.004043  0.002835 -0.001448
			 0.004003  0.002942  0.000793
			 0.002384  0.002263  0.002168
			 0.002085  0.000121  0.000337
			 0.002513 -0.000631 -0.001182
			 0.004093 -0.001499 -0.003789
			 0.013536 -0.001549 -0.000147
			 0.015048 -0.001271  0.003578
		</DataArray>
	</Points>
			<Polys>
				<DataArray type="Int32" Name="connectivity" format="ascii">
					0 1 2 3 
					4 0 3 5 
					6 7 0 4 
					7 8 1 0 
					1 9 10 2 
					8 11 9 1 
					2 10 12 13 
					3 2 13 14 
					5 3 14 15 
					16 4 5 17 
					18 6 4 16 
					17 5 15 19 
					20 21 6 18 
					21 22 7 6 
					22 23 8 7 
					23 24 11 8 
					25 10 9 
					25 9 11 
					25 12 10 
					25 11 24 
					13 12 26 27 
					25 26 12 
					14 13 27 28 
					15 14 28 29 
					19 15 29 30 
					31 16 17 32 
					33 18 16 31 
					32 17 19 34 
					35 20 18 33 
					34 19 30 36 
					37 38 20 35 
					38 39 21 20 
					39 40 22 21 
					40 41 23 22 
					41 42 24 23 
					25 24 42 
					25 42 43 
					25 43 44 
					25 44 26 
					27 26 44 45 
					28 27 45 46 
					29 28 46 47 
					30 29 47 48 
					36 30 48 49 
					31 32 50 
					33 31 50 
					32 34 50 
					35 33 50 
					34 36 50 
					37 35 50 
					36 49 50 
					51 52 38 37 
					51 37 50 
					52 53 39 38 
					53 54 40 39 
					54 55 41 40 
					55 43 42 41 
					45 44 43 55 
					46 45 55 54 
					47 46 54 53 
					48 47 53 52 
					49 48 52 51 
					49 51 50 
				</DataArray>
				<DataArray type="Int32" Name="offsets" format="ascii">
					4 8 12 16 20 24 28 32 36 40 44 48 52 56 60 64 67 70 73 76 80 83 87 91 95 99 103 107 111 115 119 123 127 131 135 138 141 144 147 151 155 159 163 167 170 173 176 179 182 185 188 192 195 199 203 207 211 215 219 223 227 231 234 
				</DataArray>
			</Polys>
		</Piece>
	</PolyData>
</VTKFile>
