<?xml version="1.0"?>
<VTKFile type="PolyData" version="0.1" byte_order="LittleEndian" compressor="vtkZLibDataCompressor">
	<PolyData>
		<Piece NumberOfPoints="456" NumberOfVerts="0" NumberOfLines="0" NumberOfStrips="0" NumberOfPolys="908">
		<PointData Normals="Normals">
		<DataArray type="Float32" Name="Normals" NumberOfComponents="3" format="ascii">
			 0.011830  0.769227 -0.638866
			 0.090649  0.339365 -0.936277
			-0.251431  0.594978 -0.763403
			 0.304212  0.731801 -0.609854
			-0.011972  0.849914 -0.526786
			 0.354639  0.816506 -0.455577
			-0.354091  0.291650 -0.888572
			-0.272686  0.020110 -0.961893
			-0.041970 -0.128079 -0.990876
			 0.302563  0.009660 -0.953081
			 0.511950  0.216774 -0.831214
			 0.494254  0.478885 -0.725522
			-0.336781  0.792925 -0.507788
			-0.581485  0.522950 -0.623216
			 0.669326  0.553330 -0.495811
			-0.051792  0.948950 -0.311145
			 0.294421  0.907854 -0.298525
			 0.609829  0.748387 -0.260818
			-0.618868  0.089363 -0.780395
			-0.386935 -0.235791 -0.891450
			-0.012797 -0.321988 -0.946657
			 0.391279 -0.213477 -0.895169
			 0.606849 -0.077761 -0.791004
			 0.747261  0.196705 -0.634750
			-0.382839  0.850344 -0.361039
			-0.634372  0.665947 -0.392538
			-0.800975  0.289224 -0.524203
			 0.848209  0.443172 -0.290069
			-0.171986  0.982363 -0.073370
			 0.136113  0.989866 -0.040467
			 0.412938  0.910730 -0.007281
			 0.690157  0.723010  0.030660
			-0.687118 -0.164826 -0.707602
			-0.369598 -0.429541 -0.823949
			 0.022690 -0.518612 -0.854709
			 0.455328 -0.450298 -0.768055
			 0.745981 -0.218810 -0.628995
			 0.886126  0.079951 -0.456497
			-0.474409  0.870040 -0.134040
			-0.747001  0.626689 -0.221925
			-0.913115  0.271757 -0.303923
			-0.874164 -0.122609 -0.469898
			 0.984887  0.078440 -0.154416
			 0.900078  0.433464  0.044371
			-0.490396  0.857633  0.154847
			-0.190461  0.960547  0.202669
			 0.096698  0.964886  0.244221
			 0.403823  0.862790  0.304171
			 0.701241  0.619514  0.352793
			-0.632375 -0.470998 -0.615030
			-0.273142 -0.643830 -0.714756
			 0.181573 -0.688124 -0.702507
			 0.589172 -0.566802 -0.575857
			 0.864623 -0.275454 -0.420182
			-0.779232  0.623924  0.059303
			-0.967494  0.249269 -0.042663
			-0.961265 -0.191422 -0.198311
			-0.722947 -0.494927 -0.482073
			 0.991607 -0.109928  0.068046
			 0.920373  0.261126  0.291080
			-0.495873  0.796145  0.346789
			-0.803576  0.557281  0.209054
			-0.186302  0.883379  0.430037
			 0.125130  0.847320  0.516131
			 0.421117  0.682565  0.597298
			 0.655185  0.408957  0.635205
			-0.341326 -0.744877 -0.573284
			 0.157680 -0.775323 -0.611565
			 0.565623 -0.715697 -0.409693
			 0.863273 -0.471317 -0.180612
			-0.975607  0.219278  0.010410
			-0.968736 -0.214087 -0.125369
			-0.740500 -0.614363 -0.272429
			-0.328822 -0.830276 -0.450020
			 0.907236 -0.275352  0.317968
			 0.851410  0.072997  0.519396
			-0.328637  0.725779  0.604353
			-0.649490  0.572877  0.499975
			-0.859663  0.295188  0.416947
			-0.066806  0.717589  0.693256
			 0.220924  0.584304  0.780885
			 0.424553  0.343994  0.837510
			 0.590921  0.007563  0.806694
			 0.100494 -0.869563 -0.483489
			 0.620571 -0.707669 -0.337782
			 0.820349 -0.571642 -0.015920
			-0.983798  0.019490  0.178216
			-0.862082 -0.497809  0.094869
			-0.534675 -0.845054 -0.002441
			-0.292493 -0.951240 -0.097929
			 0.700006 -0.613398  0.365698
			 0.718248 -0.312349  0.621738
			-0.578466  0.361126  0.731413
			-0.336944  0.304211  0.891024
			-0.761211  0.137306  0.633802
			-0.885650 -0.220917  0.408436
			-0.186381  0.244516  0.951564
			 0.138378  0.214342  0.966907
			 0.426708 -0.013800  0.904284
			 0.570535 -0.348244  0.743785
			-0.151954 -0.982265 -0.109843
			 0.130007 -0.990226 -0.050503
			 0.455436 -0.888146  0.061444
			-0.727074 -0.686539  0.005252
			-0.378648 -0.909328 -0.172478
			-0.197181 -0.975375 -0.098814
			 0.478733 -0.740534  0.471620
			-0.668130  0.207058  0.714654
			-0.426455  0.365731  0.827271
			-0.950728 -0.063698  0.303413
			-0.897621 -0.396135 -0.193271
			-0.096828  0.466458  0.879228
			 0.483960  0.208394  0.849915
			 0.811700 -0.193260  0.551175
			 0.052088 -0.998263 -0.027510
			 0.270646 -0.945738  0.179809
			-0.428407 -0.654160 -0.623331
			 0.149377 -0.842128 -0.518177
			 0.800252 -0.517302  0.303309
			-0.719122  0.648301  0.250139
			-0.968582  0.240605  0.062907
			-0.041075  0.927394  0.371824
			-0.959192 -0.051127 -0.278095
			-0.695386 -0.192038 -0.692502
			 0.572932  0.717155  0.396783
			 0.961048  0.187824  0.202755
			 0.972019 -0.198466  0.125658
			 0.651215 -0.747816 -0.129191
			 0.005339 -0.452709 -0.891643
			 0.630697 -0.485831 -0.605136
			 0.948306 -0.311033 -0.063050
			-0.139564  0.987879 -0.067955
			-0.723833  0.677232 -0.131995
			-0.948785  0.300473 -0.097584
			-0.958472  0.184618 -0.217363
			 0.523841  0.851656  0.016502
			-0.830004  0.073970 -0.552831
			-0.397124 -0.089582 -0.913383
			 0.872173  0.482874  0.078399
			 0.973017 -0.127231  0.192484
			 0.980364 -0.175114  0.090672
			 0.942664 -0.289728  0.165656
			 0.444724 -0.378115 -0.811942
			 0.876891 -0.270705 -0.397216
			-0.052727  0.949417 -0.309559
			 0.542992  0.837863 -0.056079
			-0.370447  0.516790 -0.771814
			-0.723495  0.306157 -0.618727
			-0.624657  0.551585 -0.552773
			-0.769912  0.318605 -0.552925
			 0.807447  0.524233  0.270569
			-0.757194  0.246803 -0.604769
			-0.246146  0.193758 -0.949668
			 0.908892 -0.038303  0.415269
			 0.942645 -0.202826  0.265108
			 0.917381 -0.255535  0.305145
			 0.883681 -0.309424 -0.351234
			 0.988452 -0.122006  0.089875
			 0.553140 -0.286114 -0.782416
			 0.173344  0.904032 -0.390740
			 0.436015  0.874579  0.212139
			 0.753517  0.341668  0.561671
			 0.437514  0.333799 -0.834961
			 0.204223 -0.130065 -0.970245
			 0.152507  0.324838 -0.933393
			-0.254782  0.414477 -0.873667
			-0.639475  0.320957 -0.698612
			 0.850703 -0.058699  0.522358
			-0.530782  0.554098 -0.641284
			-0.458617  0.647491 -0.608626
			 0.206453  0.293772 -0.933314
			 0.943138 -0.095578  0.318362
			 0.890269 -0.180815  0.418003
			 0.909529 -0.176477  0.376316
			 0.929908 -0.131078  0.343642
			 0.618755 -0.248747 -0.745163
			 0.623338 -0.157928 -0.765838
			 0.890355  0.083877 -0.447474
			 0.241540  0.954323  0.175857
			 0.413712  0.357215  0.837401
			 0.658156  0.020803  0.752594
			 0.146510  0.897918 -0.415064
			 0.082243  0.127130 -0.988471
			-0.185666  0.102726 -0.977228
			-0.543124  0.089631 -0.834855
			-0.712901  0.070310 -0.697731
			-0.830685  0.382251 -0.404780
			 0.870593 -0.244765  0.426800
			 0.829883 -0.100969  0.548725
			-0.613765  0.561258 -0.555232
			-0.213236  0.248965 -0.944747
			 0.632534 -0.208986 -0.745805
			 0.981994  0.130388  0.136697
			 0.907910  0.036310  0.417589
			 0.855534 -0.104096  0.507174
			 0.986991 -0.009014 -0.160523
			 0.548810 -0.318571 -0.772864
			 0.352343 -0.143625 -0.924785
			 0.564625 -0.005442 -0.825330
			-0.019197  0.673664  0.738788
			-0.343555  0.906941  0.243778
			 0.243864  0.241539  0.939249
			 0.576419  0.188479  0.795121
			-0.789452  0.580767 -0.198684
			-0.874234  0.020405 -0.485075
			-0.935492 -0.032436 -0.351855
			-0.927992 -0.214257 -0.304835
			-0.961471 -0.225381 -0.157408
			-0.996416  0.026942 -0.080187
			 0.633027 -0.351936  0.689506
			 0.734512 -0.162193  0.658928
			-0.684745 -0.205564 -0.699191
			 0.300270 -0.491766 -0.817315
			 0.556559 -0.441075 -0.704056
			 0.980451  0.162720  0.110628
			 0.891318  0.152756  0.426869
			 0.722128 -0.021571  0.691423
			 0.866802  0.064090 -0.494516
			 0.209144 -0.266899 -0.940757
			 0.419762 -0.062286 -0.905495
			-0.088193  0.430032  0.898496
			-0.524224  0.571768  0.631087
			-0.872452  0.370556  0.318615
			 0.244339  0.206845  0.947372
			-0.991039  0.083701  0.104096
			-0.968599 -0.070555  0.238405
			-0.917396 -0.261404  0.300087
			-0.930932 -0.349557  0.105719
			-0.936795 -0.308065  0.165862
			-0.933356 -0.348906 -0.084331
			-0.902361 -0.428433 -0.046793
			 0.249107 -0.403546  0.880396
			 0.327544 -0.336986  0.882698
			-0.330143 -0.772422 -0.542558
			 0.123862 -0.700985 -0.702338
			 0.949985  0.171309  0.261117
			 0.908449  0.137133 -0.394861
			 0.775369  0.067481  0.627893
			 0.214003 -0.129440  0.968219
			 0.589962  0.003220  0.807424
			 0.395586 -0.035105 -0.917758
			-0.137921 -0.309779 -0.940752
			-0.329762  0.189653  0.924818
			-0.682957  0.151717  0.714529
			-0.834357  0.059584  0.547995
			-0.174598 -0.295981  0.939101
			-0.822928 -0.201557  0.531192
			-0.874239 -0.432174  0.221206
			-0.755870 -0.302216  0.580797
			-0.687503 -0.325601  0.649095
			-0.620361 -0.737422 -0.267134
			-0.909871 -0.412672 -0.042861
			-0.226365 -0.383573  0.895339
			 0.890466  0.164425  0.424304
			 0.901122  0.204271 -0.382429
			 0.370360  0.077452 -0.925654
			-0.350014 -0.210050  0.912891
			 0.011536 -0.097243  0.995194
			 0.554770  0.056416  0.830089
			-0.401993 -0.146282 -0.903882
			-0.668507 -0.351361 -0.655472
			-0.539541 -0.209236  0.815546
			-0.639260 -0.280837  0.715875
			-0.894927 -0.240442 -0.375891
			-0.828522 -0.248324  0.501883
			 0.762184  0.145747  0.630741
			 0.961620  0.200684 -0.187115
			 0.116694  0.065146 -0.991029
			-0.111786 -0.082440  0.990307
			 0.028004 -0.058781  0.997878
			-0.823966 -0.178038 -0.537942
			-0.872120 -0.254496  0.417899
			 0.657004  0.078621  0.749776
			 0.981639  0.184783 -0.047333
			 0.209382  0.112054 -0.971392
			-0.808807 -0.108531 -0.577973
			-0.174998 -0.147147  0.973511
			-0.921171 -0.246037  0.301514
			 0.644873  0.005436  0.764271
			 0.987378  0.126313 -0.095550
			 0.239575  0.096770 -0.966043
			-0.827125 -0.066945 -0.558017
			-0.950906 -0.175559  0.254868
			-0.302273 -0.153497  0.940781
			 0.667941 -0.018608  0.743982
			 0.962959  0.116524 -0.243170
			 0.113239  0.124359 -0.985754
			-0.854180 -0.007287 -0.519927
			-0.947290 -0.120971  0.296660
			-0.332865 -0.138864  0.932694
			 0.688108 -0.044537  0.724240
			 0.967346  0.088457 -0.237521
			 0.142562  0.124621 -0.981909
			-0.842943  0.023892 -0.537472
			-0.933577 -0.082814  0.348676
			-0.282377 -0.140804  0.948914
			 0.561054 -0.094735  0.822340
			 0.990705  0.031544 -0.132320
			 0.212261  0.145611 -0.966303
			-0.780466  0.081749 -0.619830
			-0.954932 -0.012995  0.296542
			-0.316018 -0.098234  0.943654
			 0.020535 -0.086393  0.996050
			 0.808427 -0.069389  0.584491
			 0.972879  0.010714 -0.231067
			 0.332455  0.145126 -0.931886
			-0.612839  0.123320 -0.780526
			-0.986288  0.052881 -0.156331
			-0.699531 -0.028449  0.714035
			-0.088751 -0.051620  0.994715
			 0.724088 -0.083522  0.684632
			 0.992260 -0.017733 -0.122909
			 0.449058  0.159442 -0.879162
			-0.630472  0.194331 -0.751492
			-0.954568  0.093294 -0.283012
			-0.831082  0.052035  0.553710
			-0.113215  0.090776  0.989415
			 0.661677  0.000842  0.749788
			 0.986141 -0.037185 -0.161688
			 0.662778  0.160356 -0.731445
			-0.517315  0.386152 -0.763723
			-0.959790  0.173686 -0.220535
			-0.942026  0.199697  0.269645
			-0.605687  0.540418  0.584031
			 0.191069  0.242130  0.951244
			 0.872527  0.239849  0.425639
			 0.968229  0.134555 -0.210781
			 0.806444  0.156127 -0.570327
			-0.019122  0.539747 -0.841610
			-0.902208  0.372638 -0.217166
			-0.923183  0.360711 -0.132746
			-0.432068  0.794153  0.427361
			 0.122840  0.408202  0.904589
			-0.625883  0.742072 -0.239998
			 0.406391  0.198857  0.891797
			 0.815852  0.175349  0.551034
			 0.982827  0.098965 -0.155748
			 0.981579  0.136491 -0.133689
			 0.827941  0.297415 -0.475456
			 0.727677  0.419877 -0.542393
			 0.152837  0.693490 -0.704069
			-0.848578  0.518892 -0.103276
			-0.793974  0.603878 -0.070261
			-0.758442  0.637085 -0.137431
			-0.394640  0.688164  0.608842
			-0.510359  0.810528 -0.287362
			 0.036839  0.345463  0.937709
			 0.311135  0.040160  0.949517
			-0.634150  0.603285 -0.483634
			 0.409132 -0.051687  0.911010
			 0.905642 -0.137545  0.401116
			 0.919433 -0.322741 -0.224683
			 0.953431 -0.280670  0.110421
			 0.997457  0.060748 -0.037264
			 0.829968  0.185502 -0.526063
			 0.741634  0.224889 -0.631984
			 0.710249  0.011395 -0.703859
			 0.372065  0.147170 -0.916465
			-0.245692  0.696980 -0.673687
			-0.602930  0.779822 -0.168382
			-0.582996  0.802091  0.129486
			-0.871467  0.488057 -0.048429
			-0.682311  0.527057  0.506618
			-0.368968  0.132901  0.919891
			-0.775502  0.631265  0.010083
			-0.553044  0.202639 -0.808133
			-0.708405  0.440556 -0.551428
			-0.068051 -0.210649  0.975190
			 0.219495 -0.275940  0.935777
			-0.955700 -0.233465 -0.179252
			 0.258489 -0.217120  0.941298
			 0.396291 -0.184157  0.899466
			 0.819294 -0.532809  0.211831
			 0.734732 -0.624641 -0.264561
			 0.727458 -0.660640  0.185362
			 0.741815 -0.383402  0.550194
			 0.963681 -0.208637 -0.166703
			 0.789862 -0.028527 -0.612621
			 0.768860  0.025582 -0.638905
			 0.616303 -0.206803 -0.759870
			 0.263659 -0.124214 -0.956585
			-0.265623  0.194416 -0.944271
			-0.456077  0.746288 -0.484818
			-0.251261  0.963816 -0.089028
			-0.303252  0.871868  0.384559
			-0.641286  0.394715  0.657991
			-0.974073  0.218788  0.057570
			-0.680773  0.047702  0.730940
			-0.318242 -0.135881  0.938221
			-0.913903  0.044326 -0.403505
			-0.508920 -0.248063 -0.824297
			-0.535553 -0.149172 -0.831222
			-0.095742 -0.155848  0.983130
			 0.140186 -0.219007  0.965600
			-0.571505 -0.069603  0.817642
			-0.914265 -0.396528  0.082976
			 0.226669 -0.242773  0.943230
			 0.420080 -0.673850  0.607832
			 0.484855 -0.863571 -0.138419
			 0.361060 -0.908773 -0.209204
			 0.306454 -0.836201  0.454813
			 0.661220 -0.700060  0.269635
			 0.753369 -0.104584 -0.649229
			 0.687418 -0.141916 -0.712262
			 0.530513 -0.274936 -0.801852
			 0.249080 -0.258192 -0.933432
			-0.171669 -0.023060 -0.984885
			-0.688387  0.163314 -0.706719
			-0.630972  0.765931  0.123384
			-0.510166  0.346810  0.787054
			-0.862522 -0.438283 -0.252910
			-0.853209 -0.313704  0.416683
			-0.566249 -0.400668  0.720296
			-0.636670 -0.595824 -0.489535
			-0.358080 -0.534972 -0.765234
			-0.143893 -0.650226  0.745990
			 0.160912 -0.674351  0.720665
			-0.637171 -0.231223  0.735220
			-0.495577 -0.230179  0.837509
			-0.454350 -0.488929  0.744657
			-0.576725 -0.771896  0.267516
			-0.388636 -0.791064 -0.472419
			 0.158087 -0.971887  0.174483
			 0.166638 -0.969012 -0.182342
			-0.050275 -0.971722  0.230714
			-0.071627 -0.922977 -0.378130
			 0.061779 -0.838021  0.542129
			 0.267071 -0.891965  0.364790
			 0.623178 -0.662234 -0.416048
			 0.567305 -0.130603 -0.813085
			 0.438215 -0.285951 -0.852173
			 0.167697 -0.271719 -0.947653
			-0.103595 -0.241779 -0.964785
			-0.767512 -0.382196 -0.514637
			-0.982330  0.080624  0.168899
			-0.419469 -0.782099 -0.460834
			-0.608311 -0.763817 -0.215736
			-0.431627 -0.902028 -0.006637
			-0.164834 -0.826862 -0.537707
			-0.098529 -0.994209  0.042914
			-0.865102 -0.465356  0.187198
			-0.561672 -0.557240  0.611562
			-0.382834 -0.684735  0.620142
			-0.294262 -0.694379  0.656694
			-0.054882 -0.975482 -0.213126
			-0.123289 -0.862297  0.491165
			 0.141665 -0.986704  0.079659
			 0.413900 -0.462902 -0.783842
			 0.043010 -0.452698 -0.890626
			-0.436798 -0.569602 -0.696248
			-0.714675 -0.698365 -0.039056
			-0.252628 -0.919024 -0.302613
			-0.526845 -0.803691  0.276613
			-0.224316 -0.967776  0.114420
			-0.025796 -0.900940 -0.433175
			-0.386401 -0.899922 -0.202077
		</DataArray>
	</PointData>
	<Points>
		<DataArray type="Float32" NumberOfComponents="3" format="ascii">
			-0.002253  0.016249 -0.015838
			 0.002488  0.007692 -0.020315
			-0.008124  0.013279 -0.017501
			 0.005240  0.016125 -0.015401
			-0.001721  0.018877 -0.012409
			 0.010305  0.015966 -0.011997
			-0.011528  0.006291 -0.019356
			-0.008571 -0.002121 -0.021962
			 0.000168 -0.006548 -0.022539
			 0.008604 -0.000887 -0.021937
			 0.013014  0.004164 -0.017765
			 0.011363  0.012429 -0.015262
			-0.007943  0.016495 -0.013777
			-0.013902  0.010363 -0.015672
			 0.016645  0.010411 -0.011499
			-0.002127  0.021308 -0.006552
			 0.007105  0.019701 -0.006967
			 0.014457  0.016048 -0.006152
			-0.015234  0.001715 -0.018097
			-0.010325 -0.005448 -0.020351
			-0.000029 -0.009522 -0.021577
			 0.008861 -0.006751 -0.021084
			 0.014609 -0.003108 -0.017937
			 0.017461  0.001930 -0.015059
			-0.009251  0.019192 -0.008024
			-0.015363  0.013950 -0.010036
			-0.018652  0.005730 -0.013131
			 0.019853  0.009689 -0.005322
			-0.003005  0.022348 -0.000847
			 0.003068  0.022200  0.000359
			 0.009623  0.020082  0.000912
			 0.016829  0.015206  0.001420
			-0.016440 -0.004399 -0.016624
			-0.009390 -0.010546 -0.019092
			 0.000891 -0.012411 -0.020153
			 0.009968 -0.010553 -0.018816
			 0.017312 -0.005899 -0.014525
			 0.021792  0.001342 -0.008224
			-0.009969  0.020270 -0.002291
			-0.016607  0.015534 -0.004209
			-0.021269  0.006679 -0.007415
			-0.020647 -0.002225 -0.011378
			 0.023229 -0.000449 -0.005028
			 0.021329  0.009162  0.000443
			-0.011466  0.019605  0.004109
			-0.004816  0.021704  0.004814
			 0.001644  0.021757  0.006391
			 0.007918  0.019940  0.007806
			 0.016052  0.013512  0.009298
			-0.015353 -0.010096 -0.014909
			-0.007407 -0.014178 -0.017201
			 0.002345 -0.016388 -0.017025
			 0.013082 -0.012908 -0.014597
			 0.019451 -0.008721 -0.010263
			-0.017605  0.014896  0.002170
			-0.022322  0.006621 -0.001593
			-0.022433 -0.003732 -0.005788
			-0.017290 -0.011757 -0.010721
			 0.023107 -0.004367  0.001225
			 0.021025  0.005696  0.007722
			-0.013424  0.016801  0.008689
			-0.019892  0.011200  0.004921
			-0.005952  0.019490  0.010625
			 0.001977  0.018861  0.012890
			 0.009285  0.015084  0.014872
			 0.014627  0.009620  0.015582
			-0.008902 -0.016009 -0.014633
			 0.002133 -0.018270 -0.014996
			 0.013397 -0.015782 -0.010890
			 0.020953 -0.010242 -0.005177
			-0.023307  0.001321  0.001422
			-0.021901 -0.007808 -0.003228
			-0.015656 -0.014437 -0.011123
			-0.006158 -0.017899 -0.013822
			 0.020886 -0.004878  0.009670
			 0.019090  0.001825  0.013809
			-0.006474  0.016828  0.014737
			-0.013352  0.014765  0.012502
			-0.019478  0.008939  0.009400
			-0.000545  0.015565  0.017713
			 0.004231  0.013495  0.018924
			 0.008577  0.008292  0.020112
			 0.013924 -0.000378  0.019154
			 0.005614 -0.019318 -0.012252
			 0.014675 -0.017412 -0.004118
			 0.019898 -0.012535  0.002447
			-0.023292  0.000763  0.005793
			-0.022668 -0.006854  0.001196
			-0.016413 -0.014041 -0.004805
			-0.007770 -0.017599 -0.008900
			 0.017105 -0.015554  0.005970
			 0.016831 -0.007359  0.014848
			-0.014214  0.010782  0.015388
			-0.006944  0.012226  0.018510
			-0.018801  0.004045  0.011956
			-0.020476 -0.003625  0.009811
			-0.000780  0.009989  0.021499
			 0.005495  0.005694  0.022093
			 0.008311 -0.001754  0.022137
			 0.011462 -0.009257  0.018162
			 0.000579 -0.019788 -0.008689
			 0.006624 -0.020501 -0.006515
			 0.013500 -0.018739 -0.000449
			-0.017913 -0.012253  0.002318
			-0.010740 -0.016572 -0.001956
			-0.003325 -0.019128 -0.002967
			 0.012069 -0.015612  0.012422
			-0.013409 -0.001319  0.016353
			-0.006661  0.003803  0.018047
			-0.017411 -0.009408  0.013142
			-0.015253 -0.016722  0.007290
			-0.001137  0.001468  0.020975
			 0.004975 -0.002059  0.023444
			 0.007974 -0.009303  0.020955
			 0.003297 -0.019542 -0.000987
			 0.009298 -0.018849  0.004341
			-0.009558 -0.020660  0.004097
			-0.000417 -0.021786  0.005462
			 0.008589 -0.015123  0.016112
			-0.012606 -0.007323  0.025169
			-0.017064 -0.015170  0.020981
			-0.005239 -0.003081  0.027562
			-0.015991 -0.021184  0.014832
			-0.013794 -0.027233  0.011549
			 0.001686 -0.006393  0.030098
			 0.004694 -0.014049  0.029673
			 0.004385 -0.021305  0.027179
			 0.006795 -0.019496  0.010663
			-0.008693 -0.030086  0.009957
			-0.001706 -0.030820  0.013038
			 0.003236 -0.028023  0.022096
			-0.007434 -0.003809  0.033978
			-0.013320 -0.008844  0.030009
			-0.017271 -0.017052  0.025485
			-0.018206 -0.025046  0.021441
			-0.001543 -0.005939  0.037298
			-0.016451 -0.033184  0.014467
			-0.013823 -0.035639  0.011813
			 0.003350 -0.010334  0.038267
			 0.005693 -0.016472  0.038303
			 0.002018 -0.032025  0.030774
			 0.003204 -0.022463  0.035654
			-0.004052 -0.038989  0.015680
			 0.001674 -0.037946  0.022064
			-0.008352 -0.002509  0.040485
			-0.002824 -0.003920  0.042809
			-0.016024 -0.007025  0.037159
			-0.017900 -0.015071  0.036868
			-0.019771 -0.023602  0.031335
			-0.021114 -0.033027  0.022917
			 0.001478 -0.007522  0.045039
			-0.019257 -0.040066  0.017417
			-0.017216 -0.044448  0.012583
			 0.002597 -0.012586  0.045974
			 0.000065 -0.028440  0.039005
			 0.000880 -0.019408  0.043926
			 0.000524 -0.045394  0.023149
			 0.000777 -0.037534  0.032199
			-0.008343 -0.046123  0.016363
			-0.011824 -0.000586  0.045278
			-0.006009 -0.000865  0.049661
			-0.002187 -0.007116  0.051334
			-0.023745 -0.001667  0.034583
			-0.025274 -0.010885  0.038602
			-0.026221 -0.020288  0.037183
			-0.027592 -0.027359  0.031164
			-0.025922 -0.035113  0.027397
			-0.001685 -0.016586  0.050922
			-0.023358 -0.043109  0.020777
			-0.021913 -0.047499  0.016065
			-0.019914 -0.050377  0.009822
			-0.002559 -0.033175  0.044297
			-0.003098 -0.025991  0.047969
			 0.000861 -0.047537  0.033068
			-0.001015 -0.040207  0.038495
			-0.014762 -0.052402  0.015241
			-0.003933 -0.053581  0.020904
			 0.001594 -0.051286  0.026564
			-0.012023  0.000384  0.049868
			-0.005265 -0.008912  0.054454
			-0.004154 -0.019029  0.053363
			-0.023932  0.001529  0.036672
			-0.030766 -0.002198  0.031410
			-0.032758 -0.016396  0.034633
			-0.032979 -0.027193  0.031997
			-0.031280 -0.037520  0.030323
			-0.028556 -0.045095  0.023283
			-0.005286 -0.036531  0.048935
			-0.004616 -0.028868  0.053380
			-0.028596 -0.050149  0.013416
			-0.025424 -0.053521  0.008192
			-0.019741 -0.055760  0.009317
			 0.001565 -0.053838  0.032057
			-0.000768 -0.049910  0.038871
			-0.003286 -0.043344  0.044715
			 0.001556 -0.056632  0.025850
			-0.016601 -0.056972  0.015620
			-0.009551 -0.058067  0.019719
			-0.003732 -0.058574  0.021538
			-0.015641 -0.001490  0.053394
			-0.026756  0.001131  0.042836
			-0.011268 -0.010699  0.057139
			-0.009500 -0.019954  0.058494
			-0.034375 -0.001061  0.035249
			-0.036437 -0.017302  0.036514
			-0.037415 -0.026708  0.036747
			-0.036097 -0.036133  0.036713
			-0.029222 -0.047147  0.030938
			-0.030576 -0.053610  0.016615
			-0.009414 -0.037972  0.053749
			-0.008044 -0.030100  0.058431
			-0.027375 -0.056835  0.009909
			-0.020993 -0.059496  0.010398
			-0.016470 -0.061094  0.018100
			 0.002281 -0.059920  0.033983
			-0.001455 -0.054441  0.042819
			-0.007021 -0.048723  0.048964
			 0.003079 -0.062742  0.027863
			-0.009306 -0.063738  0.020523
			-0.001468 -0.064376  0.022524
			-0.018724 -0.005983  0.055234
			-0.031681 -0.003633  0.048201
			-0.035874 -0.007215  0.041590
			-0.014371 -0.018084  0.061875
			-0.036876 -0.015310  0.042937
			-0.036600 -0.026177  0.044844
			-0.034426 -0.034851  0.044699
			-0.030131 -0.051667  0.039119
			-0.026107 -0.058757  0.027896
			-0.024816 -0.061844  0.035447
			-0.029756 -0.060415  0.017688
			-0.014176 -0.039424  0.055386
			-0.011747 -0.029380  0.061863
			-0.025906 -0.062049  0.011801
			-0.017500 -0.066033  0.020510
			 0.002841 -0.067201  0.037763
			 0.003734 -0.069216  0.027826
			-0.002648 -0.065462  0.045322
			-0.012111 -0.047836  0.053012
			-0.006833 -0.064307  0.049793
			-0.002756 -0.070301  0.022301
			-0.011107 -0.068743  0.021217
			-0.020900 -0.018831  0.060599
			-0.029695 -0.017200  0.056208
			-0.033818 -0.019199  0.050949
			-0.018878 -0.032225  0.060204
			-0.032542 -0.028578  0.052349
			-0.025131 -0.063076  0.042988
			-0.027257 -0.054934  0.045948
			-0.029852 -0.041693  0.049183
			-0.023126 -0.066002  0.024995
			-0.020822 -0.073187  0.036955
			-0.020574 -0.042835  0.053746
			 0.007058 -0.083414  0.035850
			 0.007044 -0.083414  0.028423
			 0.000977 -0.084573  0.023317
			-0.018811 -0.053013  0.051413
			-0.012928 -0.065224  0.051436
			-0.001145 -0.083305  0.045858
			-0.007980 -0.085186  0.024036
			-0.011070 -0.076417  0.023976
			-0.026157 -0.031288  0.057596
			-0.020535 -0.064257  0.048210
			-0.014302 -0.088350  0.031617
			-0.015498 -0.086157  0.046470
			 0.009361 -0.114743  0.042549
			 0.012668 -0.107347  0.030789
			 0.006464 -0.113007  0.021354
			-0.009353 -0.085334  0.050627
			-0.003068 -0.115449  0.048756
			-0.006782 -0.114730  0.028253
			-0.008979 -0.116932  0.045244
			 0.015074 -0.145764  0.042574
			 0.020483 -0.143353  0.031392
			 0.012423 -0.143528  0.018357
			 0.001152 -0.146576  0.025224
			 0.005474 -0.147796  0.045217
			-0.001260 -0.149026  0.039425
			 0.020975 -0.178401  0.040215
			 0.025489 -0.175554  0.029774
			 0.017588 -0.175162  0.016488
			 0.005830 -0.175151  0.022907
			 0.004397 -0.177528  0.034752
			 0.010457 -0.176914  0.042306
			 0.023798 -0.206374  0.037490
			 0.028010 -0.204443  0.023471
			 0.017415 -0.204587  0.014524
			 0.008959 -0.206800  0.020275
			 0.008019 -0.208076  0.031931
			 0.013929 -0.207960  0.039100
			 0.027158 -0.241751  0.033108
			 0.030531 -0.239962  0.020387
			 0.021048 -0.238952  0.010808
			 0.011260 -0.239368  0.015835
			 0.010063 -0.242416  0.027656
			 0.017370 -0.242579  0.035247
			 0.029340 -0.274641  0.027824
			 0.032202 -0.273026  0.017019
			 0.022629 -0.270831  0.006834
			 0.011620 -0.272479  0.012206
			 0.011057 -0.275061  0.025397
			 0.018744 -0.276413  0.030946
			 0.018883 -0.307083  0.027636
			 0.026516 -0.306786  0.026002
			 0.031537 -0.305174  0.011732
			 0.024955 -0.303786  0.002490
			 0.015424 -0.303605  0.004883
			 0.009239 -0.304867  0.013424
			 0.011109 -0.306907  0.024182
			 0.016783 -0.340184  0.025106
			 0.027631 -0.340585  0.022732
			 0.030985 -0.341299  0.008682
			 0.023106 -0.338525 -0.003348
			 0.013510 -0.337084 -0.000859
			 0.008559 -0.337793  0.009159
			 0.007886 -0.339171  0.020833
			 0.013941 -0.367059  0.024948
			 0.028202 -0.369993  0.019401
			 0.027821 -0.368313  0.003100
			 0.023297 -0.365258 -0.007446
			 0.012534 -0.362424 -0.009401
			 0.006285 -0.367552  0.006823
			 0.004714 -0.366642  0.021103
			 0.000248 -0.379953  0.023606
			 0.013084 -0.381437  0.026328
			 0.027499 -0.386524  0.021629
			 0.027315 -0.384931  0.000392
			 0.019953 -0.378024 -0.013004
			 0.010093 -0.375358 -0.017522
			 0.006001 -0.377939 -0.008604
			 0.004376 -0.380700  0.003900
			-0.005393 -0.386908  0.029111
			 0.009417 -0.394172  0.032120
			-0.002827 -0.386950  0.015069
			 0.020402 -0.397334  0.029406
			 0.032814 -0.397236  0.022012
			 0.030595 -0.395803  0.009333
			 0.028861 -0.395923 -0.001007
			 0.024914 -0.391159 -0.012309
			 0.018710 -0.388099 -0.019920
			 0.004828 -0.387986 -0.032758
			 0.009144 -0.382211 -0.022783
			 0.002258 -0.386063 -0.012846
			 0.001332 -0.387863  0.000840
			-0.011961 -0.391566  0.029637
			-0.012186 -0.390087  0.014888
			-0.000275 -0.398518  0.036690
			 0.007765 -0.402182  0.034805
			-0.009088 -0.392127  0.009640
			 0.018920 -0.404484  0.030116
			 0.032902 -0.405952  0.022247
			 0.030232 -0.405345  0.009686
			 0.027703 -0.406431  0.000644
			 0.030531 -0.405352 -0.006931
			 0.023789 -0.399990 -0.017170
			 0.017083 -0.394771 -0.026754
			 0.015372 -0.402297 -0.029554
			 0.009740 -0.397918 -0.036172
			 0.000975 -0.394027 -0.036903
			-0.002898 -0.391301 -0.025409
			-0.003936 -0.392524 -0.015992
			-0.004313 -0.394464 -0.001358
			-0.019315 -0.397000  0.028132
			-0.012413 -0.402755  0.035731
			-0.020486 -0.395546  0.022485
			-0.013450 -0.400649  0.006858
			-0.019200 -0.397443  0.012507
			-0.004824 -0.406224  0.037628
			 0.005202 -0.408443  0.034806
			-0.004591 -0.400066 -0.000970
			 0.014830 -0.411899  0.030451
			 0.021947 -0.413354  0.028552
			 0.028592 -0.414204  0.023419
			 0.027258 -0.413645  0.011555
			 0.023060 -0.412977  0.000879
			 0.027359 -0.413810 -0.005224
			 0.031026 -0.414385 -0.009310
			 0.027550 -0.410568 -0.015435
			 0.022468 -0.407738 -0.020543
			 0.013031 -0.409421 -0.030167
			 0.004824 -0.402633 -0.037628
			-0.009298 -0.397554 -0.035515
			-0.017566 -0.394122 -0.027478
			-0.005686 -0.393543 -0.027860
			-0.012236 -0.392955 -0.018433
			-0.010284 -0.398362 -0.012483
			-0.024959 -0.404414  0.023714
			-0.023783 -0.406220  0.030223
			-0.015202 -0.410292  0.031108
			-0.022988 -0.405472  0.014433
			-0.005308 -0.408388  0.006823
			-0.018816 -0.408765  0.009264
			-0.009132 -0.413578  0.032898
			 0.000545 -0.416642  0.032570
			-0.003337 -0.408863 -0.008795
			 0.001689 -0.410554 -0.001186
			 0.014097 -0.417720  0.029257
			 0.020491 -0.421304  0.026471
			 0.020311 -0.421241  0.015215
			 0.016796 -0.417887  0.005184
			 0.018396 -0.418868 -0.003280
			 0.026726 -0.421107 -0.010691
			 0.025205 -0.417231 -0.017918
			 0.019397 -0.413299 -0.022148
			 0.010578 -0.414317 -0.030513
			 0.000397 -0.411863 -0.035794
			-0.009689 -0.409211 -0.036175
			-0.022736 -0.408518 -0.033296
			-0.019783 -0.395822 -0.020487
			-0.019043 -0.403336 -0.012733
			-0.024375 -0.410552  0.020086
			-0.023886 -0.412954  0.028519
			-0.018479 -0.417224  0.032330
			-0.017494 -0.415397  0.012962
			-0.007925 -0.416280  0.008166
			-0.010256 -0.422335  0.032869
			 0.003120 -0.423059  0.030607
			-0.020542 -0.409831 -0.013941
			-0.015510 -0.415554 -0.013776
			-0.006817 -0.422000 -0.013327
			 0.004846 -0.416357 -0.000432
			 0.004736 -0.417706  0.006339
			 0.011093 -0.423568  0.026485
			 0.011812 -0.424598  0.018470
			 0.010714 -0.418415  0.000539
			 0.009960 -0.421177  0.009923
			 0.011753 -0.421603 -0.004630
			 0.016987 -0.425625 -0.012163
			 0.019878 -0.425175 -0.021438
			 0.014965 -0.418886 -0.025153
			 0.007382 -0.420808 -0.029198
			 0.001106 -0.417849 -0.033892
			-0.009720 -0.415455 -0.035528
			-0.020209 -0.414476 -0.033413
			-0.024482 -0.403513 -0.020683
			-0.011968 -0.418955  0.013392
			-0.016920 -0.419300  0.019088
			-0.014226 -0.421751  0.025097
			-0.001221 -0.420783  0.011535