<?xml version="1.0"?>
<VTKFile type="PolyData" version="0.1" byte_order="LittleEndian" compressor="vtkZLibDataCompressor">
	<PolyData>
		<Piece NumberOfPoints="1545" NumberOfVerts="0" NumberOfLines="0" NumberOfStrips="0" NumberOfPolys="1652">
		<PointData Normals="Normals">
		<DataArray type="Float32" Name="Normals" NumberOfComponents="3" format="ascii">
			-0.123536 -0.490348  0.862727
			 0.376291 -0.001968  0.926500
			 0.612722  0.360114  0.703484
			 0.585622  0.534067  0.609769
			 0.559088  0.448168  0.697543
			 0.620615  0.301381  0.723883
			 0.675198  0.208298  0.707616
			 0.614732  0.179299  0.768086
			 0.452634  0.199731  0.869040
			 0.363003  0.175210  0.915167
			 0.292832  0.006598  0.956141
			 0.371918 -0.230975  0.899070
			 0.598092  0.791469  0.125946
			 0.113575 -0.838053  0.533636
			 0.838877 -0.406514  0.361984
			 0.963537  0.219931  0.152407
			 0.909827  0.412376  0.046485
			 0.949376  0.295704  0.106034
			 0.983826  0.117922  0.134839
			 0.993069  0.018763  0.116027
			 0.993058 -0.051402  0.105802
			 0.980338 -0.055527  0.189352
			 0.954939 -0.054105  0.291828
			 0.903259 -0.262383  0.339525
			 0.905946 -0.386038  0.173886
			 0.791327  0.498637 -0.353784
			 0.016460 -0.959274 -0.281997
			 0.451113 -0.598230 -0.662282
			 0.626326  0.157662 -0.763452
			 0.646990  0.274231 -0.711478
			 0.562773 -0.141556 -0.814401
			 0.354802 -0.325767 -0.876351
			 0.254701 -0.328291 -0.909589
			 0.303743 -0.287685 -0.908282
			 0.299929 -0.336640 -0.892590
			 0.217315 -0.428658 -0.876942
			 0.119234 -0.543786 -0.830710
			 0.080919 -0.492894 -0.866319
			 0.225370  0.646079 -0.729239
			-0.068322 -0.952864 -0.295604
			-0.231525 -0.508658 -0.829255
			-0.020377 -0.091861 -0.995563
			 0.047384 -0.046335 -0.997802
			-0.229402 -0.376003 -0.897773
			-0.420368 -0.349536 -0.837326
			-0.453967 -0.282782 -0.844955
			-0.446688 -0.245230 -0.860426
			-0.462169 -0.229375 -0.856614
			-0.528936 -0.263594 -0.806688
			-0.636504 -0.358978 -0.682640
			-0.751985 -0.302343 -0.585754
			-0.478439  0.658119 -0.581357
			-0.266768 -0.956091 -0.121348
			-0.685143 -0.564245 -0.460658
			-0.757603 -0.353578 -0.548653
			-0.827290 -0.269212 -0.493068
			-0.886870 -0.258080 -0.383218
			-0.906038 -0.195703 -0.375228
			-0.906428 -0.120281 -0.404871
			-0.918963 -0.064769 -0.388989
			-0.942960 -0.029623 -0.331586
			-0.965761 -0.035202 -0.257034
			-0.969817 -0.100669 -0.222084
			-0.965599 -0.070229 -0.250375
			-0.562153  0.736497 -0.376240
			 0.171304 -0.774403  0.609061
			-0.503301 -0.326837  0.799916
			-0.745717  0.119652  0.655431
			-0.835715  0.267549  0.479581
			-0.867500  0.206869  0.452382
			-0.878355  0.167231  0.447802
			-0.842003  0.192476  0.503968
			-0.803067  0.233040  0.548430
			-0.803852  0.241390  0.543648
			-0.831260  0.204321  0.516972
			-0.872703  0.127631  0.471274
			-0.907361  0.067521  0.414893
			-0.508096  0.860256 -0.042400
			 0.256992 -0.313968  0.913991
			 0.092478  0.187743  0.977855
			 0.030836  0.356595  0.933750
			-0.012952  0.484494  0.874699
			-0.035670  0.441870  0.896370
			-0.060603  0.384161  0.921275
			-0.031245  0.348569  0.936762
			-0.105120  0.325767  0.939588
			-0.274766  0.292743  0.915863
			-0.377201  0.243544  0.893536
			-0.417090  0.201258  0.886302
			-0.374811  0.093589  0.922365
			-0.193022  0.875075  0.443831
			 0.308196 -0.949787  0.054036
			 0.897238 -0.439249  0.044986
			 0.961014  0.116944 -0.250552
			 0.851833  0.248064 -0.461352
			 0.881583  0.035952 -0.470658
			 0.869498 -0.123355 -0.478285
			 0.869415 -0.144692 -0.472422
			 0.887697 -0.160105 -0.431694
			 0.883979 -0.251630 -0.394034
			 0.867099 -0.328185 -0.374744
			 0.831378 -0.413536 -0.371211
			 0.858333 -0.328702 -0.393978
			 0.678798  0.570660 -0.462148
			 0.134339  0.937106 -0.322159
			-0.055055 -0.951662  0.302172
			 0.001682 -0.786666 -0.617377
			 0.748949 -0.442757 -0.492994
			 0.851827  0.230801 -0.470236
			 0.933714  0.165361 -0.317544
			 0.903838 -0.053473 -0.424521
			 0.898792 -0.186543 -0.396704
			 0.841022 -0.352825 -0.410117
			 0.783500 -0.309667 -0.538734
			 0.451040  0.563576 -0.692059
			 0.582460 -0.773868  0.248736
			 0.876058  0.006323  0.482164
			 0.942333  0.290733  0.165780
			 0.989275  0.146042  0.002570
			 0.993969  0.094735  0.055236
			 0.987335 -0.036969  0.154282
			 0.935559 -0.343514  0.082024
			 0.941518 -0.322753 -0.096825
			 0.613135  0.770509 -0.174299
			 0.904608  0.058722  0.422181
			 0.764315  0.399884  0.505880
			 0.899027  0.182567  0.398019
			 0.965746  0.073981  0.248720
			 0.951146  0.029537  0.307327
			 0.903978 -0.282111  0.321305
			 0.926923 -0.258024  0.272465
			 0.626298  0.776101  0.073602
			-0.101003 -0.552176  0.827587
			-0.483761  0.085432  0.871020
			-0.419193  0.048286  0.906612
			-0.364952  0.084032  0.927226
			-0.392080  0.118831  0.912224
			-0.298322  0.091751  0.950045
			-0.250067  0.016154  0.968094
			-0.307809  0.082115  0.947898
			-0.237852  0.850096  0.469853
			-0.712612 -0.545199  0.441523
			-0.895878 -0.116029  0.428883
			-0.866914 -0.148652  0.475776
			-0.840957 -0.109913  0.529821
			-0.872065 -0.014571  0.489173
			-0.881988  0.016107  0.470997
			-0.898784  0.001322  0.438391
			-0.913566  0.063790  0.401658
			-0.550219  0.799032  0.242501
			-0.430493 -0.900449 -0.062185
			-0.903491 -0.372191 -0.212552
			-0.943688 -0.276482 -0.181689
			-0.948567 -0.256602 -0.185406
			-0.961337 -0.174603 -0.212943
			-0.962561 -0.129566 -0.238093
			-0.959622 -0.172453 -0.222229
			-0.973483 -0.043555 -0.224573
			-0.552733  0.821015 -0.142899
			-0.529594 -0.409833 -0.742675
			-0.660328 -0.349397 -0.664747
			-0.630814 -0.294967 -0.717682
			-0.571126 -0.255481 -0.780092
			-0.544546 -0.250822 -0.800349
			-0.520455 -0.315767 -0.793358
			-0.499428 -0.131512 -0.856316
			-0.228186  0.810255 -0.539831
			-0.066740 -0.301178 -0.951229
			 0.093875 -0.155457 -0.983372
			 0.422357 -0.078812 -0.902997
			 0.292173 -0.252636 -0.922394
			 0.239371 -0.310306 -0.920006
			 0.285154 -0.344275 -0.894518
			 0.359661 -0.197173 -0.912012
			 0.527507 -0.840689  0.122388
			 0.591425 -0.202605  0.780492
			 0.371719  0.419393  0.828212
			 0.448571  0.232475  0.862983
			 0.539389  0.120859  0.833338
			 0.614644  0.074754  0.785255
			 0.606115 -0.146064  0.781851
			 0.589658 -0.101514  0.801248
			 0.362670  0.862817  0.352160
			-0.027466  0.997113 -0.070793
			 0.219459 -0.870242  0.441041
			 0.721663 -0.042208  0.690957
			 0.744543  0.350810  0.567968
			 0.867135  0.109162  0.485964
			 0.890408 -0.084710  0.447212
			 0.849722 -0.244009  0.467367
			 0.852106  0.259438  0.454541
			 0.308611 -0.950994 -0.019200
			 0.880297 -0.180955 -0.438557
			 0.905223  0.231664 -0.356234
			 0.950049  0.036295 -0.309983
			 0.944188 -0.178606 -0.276784
			 0.863136 -0.368994 -0.344732
			 0.869511  0.091948 -0.485280
			 0.008537 -0.941961 -0.335613
			 0.234633 -0.211290 -0.948843
			 0.232744 -0.020880 -0.972314
			 0.209965 -0.204835 -0.956011
			 0.162079 -0.341154 -0.925929
			 0.005763 -0.437870 -0.899020
			-0.054127  0.259315 -0.964275
			-0.703171 -0.702350  0.110699
			-0.940373 -0.223813 -0.256136
			-0.932164 -0.065488 -0.356065
			-0.931972 -0.124317 -0.340548
			-0.920601 -0.146202 -0.362104
			-0.924701 -0.193314 -0.327959
			-0.881936  0.343624 -0.322663
			-0.488636 -0.676471  0.551019
			-0.745439 -0.173502  0.643597
			-0.765722 -0.036471  0.642136
			-0.787483  0.039093  0.615095
			-0.836306  0.030398  0.547420
			-0.851812 -0.062506  0.520105
			-0.774878  0.413555  0.478055
			-0.274779 -0.440266  0.854788
			-0.237884 -0.015220  0.971174
			-0.120964  0.043816  0.991689
			-0.006351  0.066256  0.997783
			 0.024668  0.036581  0.999026
			-0.014400 -0.060817  0.998045
			-0.009327  0.410135  0.911977
			 0.797983 -0.601320  0.040465
			 0.186453 -0.700614 -0.688749
			 0.060354 -0.292173 -0.954459
			 0.053372 -0.276762 -0.959455
			 0.117905 -0.393173 -0.911874
			 0.158457 -0.338569 -0.927503
			-0.104714  0.639618 -0.761527
			-0.279101 -0.808983  0.517347
			-0.871459 -0.412169  0.265849
			-0.981536 -0.191028  0.009797
			-0.992288 -0.067934 -0.103684
			-0.981530 -0.157936 -0.107957
			-0.980067 -0.185075 -0.072227
			-0.921502  0.388223 -0.010774
			 0.650049 -0.189452  0.735897
			 0.229757  0.292200  0.928348
			 0.052457  0.394079  0.917578
			-0.055100  0.247864  0.967227
			 0.014101 -0.155263  0.987773
			 0.060473 -0.273862  0.959866
			-0.187244  0.511826  0.838435
			 0.990144  0.091253 -0.106241
			 0.967829  0.210150 -0.138363
			 0.997994 -0.001851 -0.063276
			 0.969772 -0.243717  0.012016
			 0.974061 -0.224486  0.028469
			 0.896651  0.440100  0.048259
			 0.834973 -0.550251 -0.006676
			 0.256896 -0.537883 -0.802923
			 0.129737 -0.099762 -0.986517
			 0.124876 -0.083911 -0.988618
			 0.196274 -0.191727 -0.961622
			 0.234085 -0.140784 -0.961969
			-0.159577  0.727331 -0.667477
			-0.265326 -0.885912  0.380475
			-0.880127 -0.454817  0.136081
			-0.978564 -0.184594 -0.091314
			-0.982201 -0.053525 -0.180047
			-0.971010 -0.133775 -0.198100
			-0.973029 -0.164644 -0.161578
			-0.939691  0.342015  0.002530
			 0.629287 -0.261971  0.731689
			 0.178316  0.114462  0.977293
			-0.006409  0.204715  0.978801
			-0.115908  0.066804  0.991011
			-0.031737 -0.291682  0.955989
			 0.022231 -0.391018  0.920114
			-0.317628  0.339839  0.885224
			 0.993128  0.114228 -0.025465
			 0.973182  0.227712 -0.032623
			 0.999600  0.026444  0.009983
			 0.979007 -0.201030  0.033640
			 0.981085 -0.186524  0.051769
			 0.873160  0.450778  0.185448
			 0.304057 -0.873898  0.379277
			 0.738878 -0.071134  0.670074
			 0.733939  0.300384  0.609182
			 0.856811  0.089395  0.507822
			 0.888017 -0.076529  0.453397
			 0.860635 -0.218571  0.459929
			 0.819708  0.296593  0.490012
			 0.401766 -0.912517 -0.076794
			 0.895948 -0.087543 -0.435447
			 0.904404  0.275112 -0.326139
			 0.951605  0.095367 -0.292152
			 0.956847 -0.095572 -0.274427
			 0.896407 -0.259375 -0.359415
			 0.859535  0.222152 -0.460269
			 0.081549 -0.904370 -0.418885
			 0.258166 -0.097293 -0.961189
			 0.242739  0.070566 -0.967522
			 0.231637 -0.091077 -0.968529
			 0.197821 -0.214731 -0.956430
			 0.049555 -0.310833 -0.949172
			-0.073252  0.376503 -0.923515
			-0.687880 -0.722982  0.064176
			-0.932585 -0.217017 -0.288426
			-0.923234 -0.064663 -0.378759
			-0.921247 -0.117331 -0.370860
			-0.909891 -0.133913 -0.392639
			-0.914230 -0.179060 -0.363484
			-0.889217  0.343388 -0.302287
			-0.452448 -0.724533  0.519945
			-0.744451 -0.237433  0.624035
			-0.769900 -0.115420  0.627640
			-0.795726 -0.047926  0.603757
			-0.843950 -0.052052  0.533891
			-0.854988 -0.131735  0.501638
			-0.801731  0.344594  0.488346
			-0.248497 -0.511259  0.822717
			-0.248232 -0.104032  0.963098
			-0.135795 -0.049566  0.989496
			-0.023588 -0.026070  0.999382
			 0.009517 -0.050826  0.998662
			-0.022002 -0.136887  0.990342
			-0.060855  0.343091  0.937329
			-0.036711 -0.699733 -0.713461
			 0.736584 -0.422334 -0.528279
			 0.878027  0.183585 -0.442001
			 0.949214  0.105277 -0.296494
			 0.900335 -0.078702 -0.428023
			 0.887646 -0.198722 -0.415444
			 0.825100 -0.343643 -0.448464
			 0.768961 -0.289388 -0.570048
			 0.497711  0.598397 -0.627857
			 0.553160 -0.815692  0.169293
			 0.871507 -0.104304  0.479162
			 0.964894  0.174083  0.196660
			 0.998330  0.055037  0.017528
			 0.997883  0.004689  0.064864
			 0.981492 -0.119840  0.149374
			 0.920386 -0.388541  0.043884
			 0.925775 -0.354686 -0.130915
			 0.661341  0.745135 -0.086038
			 0.905397 -0.052237  0.421341
			 0.794683  0.257548  0.549680
			 0.907187  0.061160  0.416258
			 0.966477 -0.028064  0.255213
			 0.948479 -0.071281  0.308716
			 0.889573 -0.351979  0.291154
			 0.912440 -0.327867  0.244860
			 0.674281  0.722151  0.154414
			-0.130472 -0.614136  0.778341
			-0.482492  0.037449  0.875100
			-0.421413 -0.003396  0.906862
			-0.364810  0.022480  0.930811
			-0.388990  0.056587  0.919503
			-0.297201  0.022318  0.954554
			-0.253998 -0.049826  0.965920
			-0.307103  0.014612  0.951564
			-0.183285  0.814357  0.550663
			-0.761507 -0.521234  0.385256
			-0.907413 -0.073574  0.413750
			-0.882030 -0.107735  0.458711
			-0.852908 -0.079909  0.515909
			-0.874581  0.010573  0.484764
			-0.881802  0.040074  0.469913
			-0.899404  0.031030  0.436016
			-0.909402  0.090540  0.405945
			-0.490466  0.805022  0.333740
			-0.505754 -0.847083 -0.163290
			-0.935121 -0.246768 -0.254272
			-0.964292 -0.159329 -0.211556
			-0.966908 -0.140826 -0.212736
			-0.970845 -0.064427 -0.230887
			-0.967802 -0.022213 -0.250729
			-0.968724 -0.062093 -0.240245
			-0.972096  0.053129 -0.228487
			-0.488397  0.871538 -0.043468
			-0.556430 -0.261843 -0.788558
			-0.681816 -0.204045 -0.702490
			-0.646569 -0.152846 -0.747386
			-0.582701 -0.116790 -0.804251
			-0.555186 -0.112987 -0.824016
			-0.537341 -0.173311 -0.825365
			-0.501891 -0.005990 -0.864910
			-0.161927  0.876605 -0.453148
			-0.081221 -0.180705 -0.980178
			 0.094884 -0.058603 -0.993762
			 0.427930 -0.021490 -0.903556
			 0.280436 -0.166751 -0.945277
			 0.224455 -0.214359 -0.950616
			 0.268757 -0.250444 -0.930079
			 0.351449 -0.123415 -0.928037
			 0.496811 -0.867013  0.038309
			 0.590875 -0.302755  0.747801
			 0.404619  0.277514  0.871361
			 0.459237  0.099440  0.882730
			 0.540571 -0.004606  0.841286
			 0.612699 -0.046903  0.788923
			 0.594966 -0.244660  0.765609
			 0.580616 -0.205565  0.787799
			 0.416691  0.798368  0.434715
			 0.043621  0.998231  0.040410
			-0.129295 -0.647227  0.751252
			 0.374576 -0.184967  0.908559
			 0.614631  0.211256  0.760000
			 0.589423  0.400309  0.701664
			 0.561945  0.299304  0.771126
			 0.621973  0.149606  0.768615
			 0.675785  0.060980  0.734572
			 0.614951  0.021335  0.788277
			 0.452930  0.023233  0.891243
			 0.363071 -0.008831  0.931720
			 0.291229 -0.181534  0.939272
			 0.368203 -0.404244  0.837265
			 0.604958  0.746491  0.277087
			 0.105359 -0.926636  0.360894
			 0.834531 -0.476742  0.276178
			 0.965216  0.177297  0.192157
			 0.913447  0.387114  0.125527
			 0.951861  0.260694  0.161245
			 0.984620  0.080402  0.155107
			 0.992995 -0.013269  0.117407
			 0.992356 -0.080124  0.093855
			 0.979439 -0.100230  0.175081
			 0.953872 -0.118466  0.275852
			 0.900213 -0.331611  0.282225
			 0.902080 -0.420817  0.095733
			 0.796451  0.550423 -0.250401
			 0.007926 -0.886405 -0.462842
			 0.446898 -0.462790 -0.765576
			 0.629177  0.296821 -0.718355
			 0.650724  0.400840 -0.644892
			 0.562834  0.013636 -0.826457
			 0.353460 -0.152977 -0.922856
			 0.253282 -0.148116 -0.955986
			 0.302567 -0.109035 -0.946871
			 0.298371 -0.160031 -0.940938
			 0.214832 -0.252599 -0.943420
			 0.115724 -0.373508 -0.920380
			 0.077999 -0.316351 -0.945430
			 0.232547  0.772987 -0.590265
			-0.076372 -0.876782 -0.474785
			-0.234618 -0.336236 -0.912085
			-0.019380  0.103108 -0.994481
			 0.048850  0.147513 -0.987853
			-0.231241 -0.192872 -0.953587
			-0.422049 -0.176731 -0.889180
			-0.454968 -0.109390 -0.883764
			-0.447227 -0.069668 -0.891703
			-0.462499 -0.054815 -0.884924
			-0.529745 -0.097382 -0.842548
			-0.638483 -0.213923 -0.739308
			-0.753634 -0.176115 -0.633261
			-0.471362  0.762694 -0.442850
			-0.275151 -0.911956 -0.304350
			-0.689423 -0.457895 -0.561274
			-0.759777 -0.233429 -0.606836
			-0.828799 -0.160902 -0.535914
			-0.888469 -0.170734 -0.425996
			-0.907121 -0.110893 -0.405999
			-0.906747 -0.031079 -0.420529
			-0.918750  0.020359 -0.394315
			-0.942553  0.043828 -0.331170
			-0.965534  0.024253 -0.259143
			-0.970272 -0.046694 -0.237471
			-0.965737 -0.011471 -0.259268
			-0.554777  0.800599 -0.226415
			 0.163109 -0.879275  0.447516
			-0.507771 -0.470853  0.721433
			-0.745838 -0.002704  0.666122
			-0.834156  0.177210  0.522284
			-0.866437  0.123275  0.483829
			-0.877602  0.085406  0.471721
			-0.841113  0.098980  0.531725
			-0.801887  0.129721  0.583223
			-0.802613  0.138845  0.580117
			-0.830358  0.108007  0.546662
			-0.872397  0.041997  0.486990
			-0.907467 -0.005790  0.420084
			-0.500214  0.856816  0.125108
			 0.252432 -0.487525  0.835821
			 0.092345 -0.006160  0.995708
			 0.032313  0.168553  0.985163
			-0.010200  0.305893  0.952011
			-0.033337  0.260094  0.965008
			-0.058849  0.198886  0.978254
			-0.029835  0.160721  0.986549
			-0.103832  0.138404  0.984918
			-0.273661  0.112146  0.955266
			-0.376522  0.069275  0.923814
			-0.416825  0.029545  0.908507
			-0.375577 -0.083460  0.923026
			-0.185792  0.774256  0.604986
			 0.299374 -0.945065 -0.131252
			 0.893089 -0.448009 -0.040972
			 0.962481  0.154312 -0.223198
			 0.854832  0.324840 -0.404649
			 0.882684  0.118258 -0.454844
			 0.869217 -0.036352 -0.493093
			 0.868889 -0.058447 -0.491544
			 0.886920 -0.081673 -0.454645
			 0.882319 -0.178657 -0.435424
			 0.864697 -0.257376 -0.431344
			 0.828226 -0.341431 -0.444373
			 0.855994 -0.254058 -0.450255
			 0.684792  0.643037 -0.342875
			 0.143434  0.980486 -0.134440
			-0.064249 -0.991643  0.111875
			-0.949694  0.313171 -0.002340
			-0.188333  0.653243 -0.733351
			 0.861412  0.496995  0.104718
			-0.285888  0.430773  0.855981
			 0.250980 -0.620680 -0.742809
			 0.986212  0.148743 -0.072532
			 0.960592  0.261905 -0.093109
			 0.102223 -0.210878 -0.972153
			 0.997575  0.062561 -0.030509
			 0.095717 -0.195682 -0.975985
			 0.985742 -0.166977  0.020789
			 0.170779 -0.300316 -0.938427
			 0.987974 -0.149967  0.037656
			 0.207023 -0.247286 -0.946568
			 0.850025 -0.526254  0.022647
			 0.657474 -0.164996  0.735190
			 0.199919  0.233793  0.951511
			 0.013361  0.319021  0.947653
			-0.088754  0.176227  0.980340
			 0.007884 -0.190929  0.981572
			 0.063773 -0.295004  0.953365
			-0.222914 -0.850505  0.476394
			-0.855365 -0.471068  0.215513
			-0.971719 -0.233687 -0.033950
			-0.984292 -0.111191 -0.137135
			-0.969860 -0.194555 -0.146697
			-0.969008 -0.221973 -0.108402
			-0.052392  0.423734  0.904270
			-0.802996  0.367822  0.468939
			-0.901694  0.289574 -0.321083
			-0.086861  0.277029 -0.956927
			 0.852718  0.184787 -0.488597
			 0.821399  0.349182  0.450973
			-0.664258 -0.735900  0.131200
			-0.432467 -0.690858  0.579385
			 0.408753 -0.912635 -0.004416
			 0.091719 -0.937838 -0.334734
			 0.315646 -0.835272  0.450210
			 0.741006  0.010400  0.671417
			 0.892266 -0.111002 -0.437653
			 0.728640  0.382294  0.568274
			 0.892108  0.272347 -0.360515
			 0.859221  0.160883  0.485649
			 0.945654  0.092729 -0.311674
			 0.894575 -0.014868  0.446671
			 0.955319 -0.102933 -0.277076
			 0.869379 -0.161860  0.466885
			 0.895065 -0.281886 -0.345543
			-0.231646 -0.442939  0.866109
			-0.235205 -0.020872  0.971722
			-0.123382  0.040516  0.991532
			-0.011174  0.068378  0.997597
			 0.022302  0.043648  0.998798
			-0.008102 -0.046987  0.998863
			-0.731694 -0.202524  0.650852
			-0.760277 -0.077293  0.644985
			-0.787740 -0.010349  0.615921
			-0.836475 -0.022294  0.547551
			-0.845882 -0.108030  0.522316
			-0.927942 -0.271952 -0.254883
			-0.925378 -0.124367 -0.358062
			-0.921727 -0.177984 -0.344590
			-0.909812 -0.197174 -0.365192
			-0.912157 -0.240787 -0.331650
			 0.249452 -0.186163 -0.950325
			 0.231281 -0.013592 -0.972792
			 0.223397 -0.181390 -0.957701
			 0.190417 -0.308711 -0.931901
			 0.043613 -0.409526 -0.911255
			 0.760165 -0.338201 -0.554770
			 0.876663 -0.072567  0.475601
			 0.946972  0.240972  0.212548
			 0.858543  0.287639 -0.424462
			 0.990735  0.133205  0.026471
			 0.937041  0.202527 -0.284493
			 0.994501  0.077768  0.070140
			 0.903709  0.017842 -0.427775
			 0.987571 -0.058363  0.145936
			 0.899589 -0.108329 -0.423089
			 0.943058 -0.331858  0.022633
			 0.845988 -0.260076 -0.465473
			 0.946955 -0.284377 -0.149685
			 0.786814 -0.199941 -0.583906
			 0.607247  0.793700 -0.035939
			 0.451453  0.673621 -0.585171
			 0.906087 -0.012910  0.422895
			 0.770334  0.288912  0.568432
			 0.899778  0.104653  0.423612
			 0.965837  0.028285  0.257602
			 0.951131 -0.021610  0.308029
			 0.910207 -0.313458  0.270679
			 0.931863 -0.283552  0.226340
			 0.621419  0.756203  0.204931
			 0.602111 -0.789911  0.116203
			 0.548772 -0.835766 -0.018568
			 0.604910 -0.315705  0.731036
			 0.379002  0.256758  0.889063
			 0.449734  0.077268  0.889814
			 0.539239 -0.020957  0.841892
			 0.614512 -0.055639  0.786943
			 0.609743 -0.259131  0.749043
			 0.592750 -0.221333  0.774377
			 0.358615  0.794300  0.490392
			-0.090097 -0.676789  0.730643
			-0.483895 -0.059109  0.873127
			-0.419961 -0.098793  0.902149
			-0.365530 -0.069321  0.928214
			-0.392212 -0.035144  0.919203
			-0.298132 -0.065939  0.952245
			-0.249747 -0.137922  0.958438
			-0.307513 -0.074387  0.948632
			-0.241322  0.759274  0.604373
			-0.717833 -0.604766  0.344927
			-0.898271 -0.174579  0.403275
			-0.870066 -0.211371  0.445317
			-0.843401 -0.184334  0.504674
			-0.872701 -0.090346  0.479823
			-0.882260 -0.059414  0.466999
			-0.899100 -0.067683  0.432479
			-0.913627 -0.004788  0.406525
			-0.549541  0.743763  0.380553
			-0.437603 -0.872094 -0.218990
			-0.910629 -0.309264 -0.274064
			-0.947750 -0.224816 -0.226336
			-0.952040 -0.205834 -0.226389
			-0.962678 -0.126014 -0.239523
			-0.963134 -0.080795 -0.256603
			-0.960813 -0.122696 -0.248564
			-0.973382 -0.004449 -0.229145
			-0.552468  0.833506  0.006829
			 0.010497 -0.658227 -0.752746
			-0.533491 -0.259133 -0.805132
			-0.663261 -0.215317 -0.716745
			-0.632522 -0.156686 -0.758529
			-0.571947 -0.110604 -0.812800
			-0.544958 -0.103158 -0.832093
			-0.522063 -0.163964 -0.836998
			-0.499789  0.014704 -0.866022
			-0.227399  0.890072 -0.395046
			-0.067289 -0.125638 -0.989792
			 0.097302  0.014626 -0.995147
			 0.426143  0.072269 -0.901764
			 0.291976 -0.085724 -0.952576
			 0.239606 -0.138924 -0.960879
			 0.286196 -0.174137 -0.942214
			 0.359715 -0.036469 -0.932349
			-0.029605  0.994135  0.104015
			 0.254626 -0.592497  0.764273
			 0.166392 -0.929357  0.329558
			-0.494170 -0.575183  0.651890
			 0.092276 -0.131803  0.986972
			-0.745584 -0.094576  0.659667
			 0.031064  0.049261  0.998303
			-0.835767  0.108697  0.538218
			-0.012748  0.194830  0.980754
			-0.867506  0.057717  0.494066
			-0.035533  0.145888  0.988663
			-0.878364  0.020144  0.477568
			-0.060412  0.080865  0.994893
			-0.841983  0.026967  0.538829
			-0.031195  0.040625  0.998687
			-0.802901  0.052550  0.593792
			-0.105122  0.017129  0.994312
			-0.803573  0.062341  0.591932
			-0.274651 -0.007814  0.961512
			-0.831160  0.034432  0.554966
			-0.377097 -0.049195  0.924866
			-0.872754 -0.026641  0.487432
			-0.417056 -0.088703  0.904542
			-0.907390 -0.067730  0.414797
			-0.374628 -0.206617  0.903860
			-0.511527  0.827247  0.232385
			-0.195904  0.684287  0.702405
			-0.264472 -0.873660 -0.408378
			-0.679872 -0.404922 -0.611402
			-0.756229 -0.171037 -0.631557
			-0.826836 -0.105993 -0.552366
			-0.886195 -0.130644 -0.444512
			-0.905753 -0.071611 -0.417712
			-0.906386  0.012732 -0.422258
			-0.918818  0.062464 -0.389707
			-0.942769  0.078469 -0.324083
			-0.965677  0.048821 -0.255115
			-0.969756 -0.027313 -0.242544
			-0.965597  0.012001 -0.259767
			-0.564355  0.815883 -0.125847
			-0.070718 -0.816986 -0.572304
			-0.230412 -0.232578 -0.944890
			-0.025247  0.225389 -0.973942
			 0.042525  0.270515 -0.961776
			-0.228867 -0.080318 -0.970139
			-0.420098 -0.073785 -0.904474
			-0.453868 -0.005188 -0.891054
			-0.446618  0.036936 -0.893962
			-0.462136  0.051286 -0.885325
			-0.528934  0.001287 -0.848662
			-0.635941 -0.132977 -0.760195
			-0.751627 -0.108411 -0.650618
			-0.482351  0.804445 -0.346706
			 0.012013 -0.829393 -0.558537
			 0.446645 -0.371388 -0.813990
			 0.622418  0.396964 -0.674549
			 0.641474  0.495036 -0.586046
			 0.562492  0.124124 -0.817433
			 0.354897 -0.037722 -0.934144
			 0.254810 -0.029376 -0.966545
			 0.303673  0.010302 -0.952720
			 0.299515 -0.043139 -0.953116
			 0.216453 -0.139093 -0.966334
			 0.118607 -0.267040 -0.956359
			 0.080837 -0.205412 -0.975332
			 0.219482  0.841944 -0.492907
			 0.297655 -0.923669 -0.241325
			 0.891683 -0.442534 -0.095209
			 0.960137  0.195697 -0.199601
			 0.847441  0.392876 -0.357060
			 0.880713  0.187949 -0.434765
			 0.869564  0.033164 -0.492704
			 0.869433  0.010123 -0.493947
			 0.887590 -0.018360 -0.460268
			 0.883242 -0.120998 -0.453038
			 0.865346 -0.202760 -0.458328
			 0.828086 -0.287554 -0.481235
			 0.856658 -0.196635 -0.476940
			 0.678224  0.687221 -0.260269
			 0.832387 -0.511473  0.213373
			 0.962443  0.166961  0.214074
			 0.904335  0.390249  0.172869
			 0.947004  0.256922  0.192806
			 0.983590  0.072719  0.165117
			 0.993057 -0.019291  0.116043
			 0.992796 -0.085396  0.084040
			 0.979887 -0.116535  0.161993
			 0.954220 -0.148391  0.259701
			 0.899326 -0.367169  0.237485
			 0.899893 -0.434172  0.041077
			 0.793315  0.582888 -0.175763
			 0.109026 -0.965629  0.235955
			-0.123490 -0.744317  0.656309
			 0.374023 -0.299081  0.877871
			 0.611093  0.126723  0.781349
			 0.581669  0.328099  0.744321
			 0.557325  0.215923  0.801727
			 0.620245  0.062987  0.781875
			 0.675126 -0.023866  0.737317
			 0.614628 -0.072188  0.785507
			 0.452660 -0.084709  0.887651
			 0.363128 -0.123982  0.923454
			 0.290704 -0.301859  0.907950
			 0.365509 -0.514701  0.775555
			 0.595858  0.706362  0.382107
			 0.129235  0.991575 -0.008811
			-0.055113 -0.998409 -0.011914
			-0.889820  0.454103 -0.044846
			-0.042126  0.694905 -0.717866
			 0.918143  0.356765  0.172432
			-0.270739  0.444657  0.853804
			 0.200448 -0.630305 -0.750024
			 0.999947 -0.000970 -0.010232
			 0.992940  0.115273 -0.027964
			 0.129722 -0.195987 -0.971988
			 0.995587 -0.089208  0.029131
			 0.125942 -0.180007 -0.975570
			 0.946216 -0.315693  0.070810
			 0.181746 -0.295998 -0.937739
			 0.949935 -0.299708  0.088316
			 0.226007 -0.248725 -0.941837
			 0.758277 -0.649894  0.051515
			 0.578191 -0.283933  0.764903
			 0.173047  0.173537  0.969505
			 0.002137  0.286032  0.958218
			-0.122118  0.159665  0.979589
			-0.082039 -0.217882  0.972521
			-0.040742 -0.328472  0.943635
			-0.377502 -0.819890  0.430433
			-0.928161 -0.341279  0.148478
			-0.991794 -0.081926 -0.098150
			-0.979341  0.044000 -0.197368
			-0.977036 -0.040456 -0.209198
			-0.982702 -0.068653 -0.172001
			-0.034555  0.377649  0.925304
			-0.782889  0.392717  0.482553
			-0.878288  0.362913 -0.311293
			-0.059120  0.332403 -0.941283
			 0.867604  0.156007 -0.472150
			 0.837343  0.271764  0.474344
			-0.710668 -0.698122  0.087050
			-0.481048 -0.691810  0.538508
			 0.350445 -0.935219 -0.050529
			 0.035782 -0.922653 -0.383967
			 0.257786 -0.876326  0.406939
			 0.733390 -0.072500  0.675932
			 0.887884 -0.143993 -0.436954
			 0.745627  0.304465  0.592740
			 0.911080  0.233893 -0.339450
			 0.862693  0.080015  0.499358
			 0.952733  0.048820 -0.299862
			 0.887262 -0.095320  0.451309
			 0.949719 -0.148524 -0.275636
			 0.852693 -0.241368  0.463309
			 0.879021 -0.319305 -0.354072
			-0.267902 -0.472883  0.839411
			-0.245937 -0.057648  0.967570
			-0.130574 -0.004469  0.991429
			-0.016858  0.015950  0.999731
			 0.014930 -0.010969  0.999828
			-0.021168 -0.099481  0.994814
			-0.749611 -0.190026  0.634013
			-0.770120 -0.063029  0.634778
			-0.792967  0.007076  0.609224
			-0.841731  0.001895  0.539893
			-0.856308 -0.081668  0.509969
			-0.940625 -0.198564 -0.275314
			-0.927735 -0.046168 -0.370373
			-0.927602 -0.100425 -0.359819
			-0.916680 -0.119193 -0.381432
			-0.922101 -0.164417 -0.350280
			 0.246776 -0.150821 -0.957264
			 0.239737  0.023480 -0.970554
			 0.221174 -0.144120 -0.964527
			 0.180033 -0.270195 -0.945824
			 0.027029 -0.362369 -0.931643
			 0.760062 -0.306179 -0.573202
			 0.876637 -0.099848  0.470678
			 0.946973  0.228348  0.226051
			 0.858660  0.311292 -0.407187
			 0.990752  0.131374  0.033924
			 0.937146  0.218345 -0.272183
			 0.994510  0.073609  0.074375
			 0.903826  0.042155 -0.425818
			 0.987565 -0.066582  0.142414
			 0.899729 -0.084055 -0.428279
			 0.943021 -0.332714  0.003667
			 0.846060 -0.233196 -0.479377
			 0.946899 -0.275523 -0.165737
			 0.786757 -0.166466 -0.594392
			 0.607242  0.794462  0.009298
			 0.451498  0.705831 -0.545851
			 0.905984 -0.037192  0.421674
			 0.770269  0.255921  0.584115
			 0.899810  0.080196  0.428847
			 0.965872  0.013501  0.258668
			 0.951177 -0.039159  0.306152
			 0.910204 -0.328464  0.252268
			 0.931839 -0.296095  0.209772
			 0.621464  0.743267  0.247662
			 0.601944 -0.795384  0.070905
			 0.548760 -0.833349 -0.066277
			 0.604802 -0.356950  0.711900
			 0.379049  0.205529  0.902264
			 0.449851  0.026281  0.892717
			 0.539219 -0.068974  0.839336
			 0.614548 -0.100488  0.782454
			 0.609799 -0.301531  0.732956
			 0.592781 -0.265205  0.760446
			 0.358586  0.765082  0.534851
			-0.090033 -0.717387  0.690832
			-0.483905 -0.108791  0.868332
			-0.419801 -0.150105  0.895118
			-0.365372 -0.122116  0.922817
			-0.392225 -0.087439  0.915704
			-0.298179 -0.120103  0.946924
			-0.249766 -0.192401  0.948999
			-0.307560 -0.128333  0.942835
			-0.241428  0.723649  0.646563
			-0.717800 -0.623473  0.309910
			-0.898222 -0.197268  0.392788
			-0.870094 -0.236339  0.432528
			-0.843436 -0.212752  0.493307
			-0.872669 -0.117528  0.473957
			-0.882268 -0.085811  0.462861
			-0.899120 -0.092216  0.427878
			-0.913652 -0.027901  0.405537
			-0.549508  0.720954  0.422216
			-0.437664 -0.858159 -0.268354
			-0.910663 -0.293080 -0.291200
			-0.947793 -0.211425 -0.238720
			-0.952075 -0.192540 -0.237659
			-0.962697 -0.112112 -0.246263
			-0.963154 -0.065868 -0.260761
			-0.960823 -0.108280 -0.255138
			-0.973391  0.008635 -0.228989
			-0.552429  0.831781  0.054428
			 0.010467 -0.614246 -0.789045
			-0.533518 -0.212772 -0.818588
			-0.663385 -0.174089 -0.727746
			-0.632619 -0.113140 -0.766154
			-0.571982 -0.063986 -0.817767
			-0.545056 -0.055461 -0.836564
			-0.522149 -0.115928 -0.844939
			-0.499766  0.064097 -0.863786
			-0.227372  0.911194 -0.343552