<?xml version="1.0"?>
<VTKFile type="PolyData" version="0.1" byte_order="LittleEndian" compressor="vtkZLibDataCompressor">
	<PolyData>
		<Piece NumberOfPoints="770" NumberOfVerts="0" NumberOfLines="0" NumberOfStrips="0" NumberOfPolys="1541">
		<PointData Normals="Normals">
		<DataArray type="Float32" Name="Normals" NumberOfComponents="3" format="ascii">
			 0.870136 -0.381817 -0.311576
			 0.895916 -0.188320 -0.402331
			 0.882103 -0.055182 -0.467814
			 0.862704 -0.000791 -0.505709
			 0.857656  0.004096 -0.514208
			 0.865748 -0.076449 -0.494607
			 0.833340 -0.129192 -0.537452
			 0.722965 -0.146501 -0.675173
			 0.662594 -0.242287 -0.708707
			 0.557631 -0.396217 -0.729425
			 0.431417 -0.345621 -0.833322
			 0.401323 -0.217052 -0.889847
			 0.448143  0.647769 -0.616087
			-0.206447  0.617859  0.758702
			-0.447584  0.255385  0.856999
			-0.458691  0.335140  0.822973
			-0.568286  0.352808  0.743356
			-0.557196  0.474160  0.681693
			-0.586241  0.625399  0.514973
			-0.636953  0.716610  0.284185
			-0.712850  0.672978  0.197348
			-0.884887  0.397427  0.242954
			-0.764169 -0.303969  0.568901
			-0.621536 -0.226491  0.749930
			-0.672218 -0.051222  0.738579
			-0.775577  0.114953  0.620698
			-0.871607  0.147176  0.467590
			-0.889144  0.068879  0.452415
			-0.882820  0.055359  0.466438
			-0.928402  0.129686  0.348212
			-0.965684  0.142557  0.217100
			-0.958887 -0.052684  0.278856
			-0.915735 -0.191370  0.353281
			-0.688106 -0.544092  0.480077
			 0.398446 -0.904375  0.152796
			 0.521423 -0.624247 -0.581751
			 0.234161 -0.499035 -0.834345
			 0.329630 -0.316748 -0.889390
			 0.266173 -0.259660 -0.928293
			 0.105392 -0.207216 -0.972602
			 0.017413 -0.090319 -0.995761
			 0.225124  0.009382 -0.974285
			-0.128706  0.077552 -0.988646
			-0.230631  0.147892 -0.961736
			 0.110594  0.065179 -0.991726
			 0.141917  0.070368 -0.987374
			-0.102110  0.716367 -0.690211
			-0.322408  0.937743  0.129192
			-0.700517  0.696488  0.155501
			-0.579658  0.469629  0.665917
			-0.736189  0.671183 -0.086831
			-0.827927  0.560831  0.002220
			-0.811203  0.506969  0.291431
			-0.852191  0.506260 -0.132176
			-0.853596  0.520901  0.005949
			-0.925628  0.238460 -0.293853
			-0.974243  0.102433  0.200894
			-0.990629  0.106317 -0.085733
			-0.990248  0.118143  0.073826
			-0.882872  0.119853  0.454062
			-0.994716  0.100705 -0.019979
			-0.997441 -0.021458 -0.068191
			-0.959837 -0.026734  0.279281
			-0.982490 -0.131165 -0.132321
			-0.874973 -0.279351 -0.395455
			-0.819220 -0.408357 -0.402645
			-0.526308 -0.774228 -0.351525
			 0.963135 -0.123890 -0.238792
			 0.951052 -0.112525 -0.287815
			 0.938694 -0.122101 -0.322405
			 0.902860 -0.044825 -0.427592
			 0.872117 -0.006849 -0.489250
			 0.881863 -0.092530 -0.462338
			 0.842931 -0.210563 -0.495106
			 0.760712 -0.217031 -0.611731
			 0.679620 -0.325783 -0.657254
			 0.545681 -0.537382 -0.643003
			 0.366338 -0.516791 -0.773772
			 0.451182 -0.247834 -0.857329
			 0.789142  0.571649 -0.224662
			-0.012539  0.513881  0.857770
			-0.369752  0.242132  0.897026
			-0.427341  0.503740  0.750750
			-0.562074  0.585454  0.584223
			-0.481430  0.742162  0.466284
			-0.472289  0.841921  0.260983
			-0.542023  0.825471  0.157512
			-0.651967  0.735014  0.186262
			-0.858159 -0.277754  0.431759
			-0.505795 -0.690149  0.517557
			-0.442322 -0.515418  0.733959
			-0.564243 -0.146038  0.812590
			-0.744108  0.172543  0.645393
			-0.846010  0.210990  0.489642
			-0.860951  0.079729  0.502401
			-0.891119  0.097978  0.443066
			-0.925196  0.282749  0.253111
			-0.943106  0.273308  0.189348
			-0.917123  0.018952  0.398154
			-0.818532 -0.121660  0.561431
			-0.455699 -0.374399  0.807567
			 0.703919 -0.486754  0.517270
			 0.964984 -0.261965 -0.013457
			 0.938153 -0.248232 -0.241348
			 0.906844 -0.181589 -0.380343
			 0.869733 -0.101312 -0.483013
			 0.842316 -0.036891 -0.537720
			 0.858906 -0.119224 -0.498062
			 0.809298 -0.269836 -0.521753
			 0.755704 -0.274649 -0.594542
			 0.668698 -0.379052 -0.639658
			 0.429190 -0.631662 -0.645600
			 0.313482 -0.621876 -0.717634
			 0.504368 -0.304444 -0.808039
			 0.884191  0.429631 -0.183367
			 0.107561  0.440921  0.891078
			-0.332928  0.421897  0.843304
			-0.362918  0.662722  0.655050
			-0.320852  0.822541  0.469553
			-0.234987  0.951740  0.197415
			-0.339176  0.940562  0.017387
			-0.649749  0.753442  0.100754
			-0.933930  0.070942  0.350344
			-0.495678 -0.848432  0.185649
			-0.278830 -0.806658  0.521111
			-0.634952 -0.278120  0.720753
			-0.763202  0.189404  0.617777
			-0.815083  0.249100  0.523058
			-0.839383  0.125771  0.528788
			-0.901534  0.158191  0.402756
			-0.930990  0.344902  0.119586
			-0.947671  0.286339  0.141174
			-0.926799  0.071057  0.368775
			-0.764863 -0.121061  0.632716
			-0.258912 -0.279798  0.924488
			 0.714681 -0.350905  0.605059
			 0.757755 -0.488249  0.432922
			 0.916277 -0.396515 -0.056682
			 0.883109 -0.312373 -0.350060
			 0.798597 -0.166661 -0.578331
			 0.755990 -0.063417 -0.651504
			 0.782962 -0.196048 -0.590369
			 0.750507 -0.313448 -0.581798
			 0.739730 -0.313656 -0.595331
			 0.633587 -0.441414 -0.635390
			 0.385722 -0.692931 -0.609151
			 0.340841 -0.696832 -0.631073
			 0.418115 -0.378720 -0.825682
			 0.886883  0.353264 -0.297729
			 0.168223  0.602896  0.779883
			-0.300557  0.591962  0.747828
			-0.168681  0.803885  0.570364
			 0.068963  0.982238  0.174506
			 0.074853  0.991297 -0.108290
			-0.116731  0.950808 -0.286946
			-0.567725  0.806643 -0.164364
			-0.915205  0.376182  0.144525
			-0.751449 -0.595607  0.283860
			 0.001673 -0.987548  0.157309
			-0.104748 -0.934516  0.340157
			-0.584142 -0.468891  0.662509
			-0.738824  0.137215  0.659781
			-0.749498  0.294652  0.592817
			-0.782822  0.198249  0.589820
			-0.856447  0.263311  0.444034
			-0.885752  0.431724  0.170466
			-0.896166  0.433539  0.094502
			-0.923838  0.269099  0.272231
			-0.782867  0.012426  0.622066
			-0.252497 -0.315399  0.914751
			 0.510838 -0.474494  0.716868
			 0.633211 -0.634250  0.443590
			 0.767006 -0.595741  0.238319
			 0.829811 -0.532030 -0.168398
			 0.663554 -0.253300 -0.703943
			 0.562977 -0.143929 -0.813844
			 0.641087 -0.244216 -0.727576
			 0.698831 -0.319671 -0.639879
			 0.690780 -0.350638 -0.632357
			 0.591928 -0.486674 -0.642471
			 0.385158 -0.701165 -0.600017
			 0.217085 -0.747102 -0.628262
			 0.297258 -0.487813 -0.820778
			 0.827639  0.321378 -0.460141
			 0.119313  0.762822  0.635506
			-0.257908  0.666415  0.699553
			-0.022451  0.904818  0.425205
			 0.283820  0.957312 -0.054773
			 0.374227  0.841757 -0.389099
			 0.052047  0.851623 -0.521565
			-0.545528  0.833099 -0.091355
			-0.830834  0.452083  0.324557
			-0.623070 -0.507328  0.595316
			 0.050910 -0.936781  0.346192
			-0.004839 -0.944475  0.328547
			-0.546276 -0.556859  0.625691
			-0.745689  0.073160  0.662265
			-0.697098  0.315138  0.644005
			-0.699192  0.263824  0.664476
			-0.749022  0.372558  0.547874
			-0.787671  0.569168  0.235844
			-0.801500  0.587731  0.110317
			-0.818368  0.473937  0.325051
			-0.671400  0.171157  0.721060
			-0.007168 -0.380229  0.924865
			 0.440562 -0.604916  0.663311
			 0.687082 -0.712290  0.143395
			 0.724168 -0.663528  0.187912
			 0.745919 -0.620862 -0.241113
			 0.485069 -0.280674 -0.828209
			 0.376182 -0.100299 -0.921101
			 0.497284 -0.184436 -0.847757
			 0.599439 -0.310650 -0.737679
			 0.590466 -0.384537 -0.709564
			 0.550488 -0.485879 -0.678885
			 0.320360 -0.723466 -0.611528
			 0.187676 -0.786114 -0.588900
			 0.372483 -0.595293 -0.711957
			 0.829408  0.419440 -0.368989
			-0.066987  0.775972  0.627200
			-0.240998  0.757378  0.606876
			 0.009227  0.972586  0.232360
			 0.367333  0.897239 -0.245008
			 0.509633  0.680370 -0.526660
			 0.107614  0.873660 -0.474486
			-0.484196  0.873891  0.043234
			-0.722588  0.580020  0.376091
			-0.524625 -0.244783  0.815383
			-0.008216 -0.807999  0.589126
			-0.183988 -0.873905  0.449932
			-0.660708 -0.488995  0.569516
			-0.755599  0.050498  0.653085
			-0.613287  0.314375  0.724602
			-0.562376  0.283919  0.776611
			-0.623928  0.440137  0.645751
			-0.699294  0.680655  0.218396
			-0.707486  0.699134  0.103318
			-0.703954  0.560286  0.436496
			-0.474302  0.204967  0.856169
			 0.057154 -0.335808  0.940195
			 0.464523 -0.669250  0.579933
			 0.660503 -0.748521 -0.058746
			 0.634595 -0.762201  0.127828
			 0.643407 -0.699180 -0.311728
			 0.415392 -0.231671 -0.879647
			 0.303953 -0.033708 -0.952090
			 0.413183 -0.176972 -0.893287
			 0.509390 -0.307567 -0.803694
			 0.541065 -0.361800 -0.759177
			 0.486022 -0.497852 -0.718280
			 0.260625 -0.752776 -0.604485
			 0.181030 -0.811231 -0.555997
			 0.408606 -0.654186 -0.636460
			 0.916859  0.390653 -0.082216
			 0.089715  0.806812  0.583958
			-0.207166  0.851002  0.482574
			 0.044036  0.971452  0.233114
			 0.431583  0.879433 -0.200834
			 0.571925  0.589518 -0.570413
			 0.232405  0.804876 -0.546043
			-0.562538  0.810124  0.165076
			-0.658279  0.043948  0.751490
			-0.338000 -0.667496  0.663480
			-0.515097 -0.678184  0.524159
			-0.732212 -0.370336  0.571591
			-0.735796  0.068178  0.673763
			-0.522656  0.261123  0.811570
			-0.462751  0.277924  0.841796
			-0.601656  0.454123  0.657101
			-0.682625  0.697009  0.219548
			-0.649743  0.748430  0.132991
			-0.624241  0.580121  0.523242
			-0.275095  0.140529  0.951091
			 0.090387 -0.304722  0.948143
			 0.475098 -0.723501  0.500827
			 0.633832 -0.763774 -0.122093
			 0.573511 -0.805858  0.147234
			 0.654687 -0.689103 -0.310680
			 0.403957 -0.233072 -0.884588
			 0.250064 -0.037555 -0.967501
			 0.365591 -0.169040 -0.915297
			 0.452473 -0.289847 -0.843360
			 0.484824 -0.352536 -0.800415
			 0.371901 -0.549359 -0.748261
			 0.239892 -0.760639 -0.603225
			 0.185152 -0.827517 -0.530033
			 0.481685 -0.687877 -0.542960
			 0.985828  0.005902 -0.167656
			 0.473648  0.802771  0.362237
			-0.133766  0.871878  0.471100
			 0.032902  0.949219  0.312891
			 0.391390  0.885314 -0.251065
			 0.539548  0.548450 -0.638819
			 0.405663  0.770137 -0.492267
			-0.053727  0.985838 -0.158861
			-0.619167  0.648153  0.443318
			-0.646835 -0.235452  0.725374
			-0.556860 -0.575741  0.598690
			-0.693299 -0.497538  0.521337
			-0.806823 -0.257827  0.531565
			-0.716111  0.041293  0.696764
			-0.485723  0.198284  0.851326
			-0.498171  0.292629  0.816207
			-0.590653  0.444468  0.673482
			-0.661733  0.692376  0.287617
			-0.664528  0.743470  0.075198
			-0.616325  0.624719  0.479447
			-0.310049  0.121835  0.942882
			 0.011977 -0.291283  0.956562
			 0.427546 -0.773915  0.467183
			 0.627720 -0.763933 -0.149577
			 0.622759 -0.768943  0.144564
			 0.659792 -0.662671 -0.354318
			 0.321194 -0.205708 -0.924401
			 0.220904 -0.020775 -0.975074
			 0.315718 -0.151115 -0.936742
			 0.360033 -0.277466 -0.890724
			 0.343815 -0.381073 -0.858239
			 0.291518 -0.551745 -0.781406
			 0.181298 -0.752971 -0.632586
			 0.151353 -0.817350 -0.555905
			 0.356361 -0.722624 -0.592302
			 0.814447 -0.095888 -0.572260
			 0.316361  0.942687  0.106099
			-0.106036  0.907993  0.405346
			-0.023917  0.979121  0.201865
			 0.307850  0.884896 -0.349552
			 0.507594  0.575752 -0.640982
			 0.514551  0.514574 -0.685894
			 0.138155  0.802370 -0.580617
			-0.794122  0.203954  0.572515
			-0.682489 -0.382604  0.622754
			-0.755119 -0.373752  0.538613
			-0.828588 -0.343405  0.442170
			-0.816650 -0.264348  0.513033
			-0.652061 -0.085893  0.753286
			-0.503111  0.146877  0.851650
			-0.512708  0.293820  0.806722
			-0.619350  0.464244  0.633153
			-0.690043  0.673817  0.264218
			-0.655490  0.748535  0.100143
			-0.585469  0.607440  0.536883
			-0.322528  0.070849  0.943905
			-0.130397 -0.314267  0.940337
			 0.386242 -0.814473  0.432956
			 0.454232 -0.812107 -0.366272
			 0.519046 -0.824606 -0.224982
			 0.527392 -0.760462 -0.378888
			 0.426067 -0.534872 -0.729644
			 0.228303 -0.380268 -0.896256
			 0.118682 -0.350484 -0.929019
			-0.037133 -0.373086 -0.927053
			-0.040499 -0.453251 -0.890462
			-0.082248 -0.597885 -0.797351
			-0.092161 -0.697241 -0.710888
			-0.141621 -0.761561 -0.632431
			 0.053410 -0.726819 -0.684749
			-0.585951  0.792642  0.168461
			-0.507289  0.846387  0.162133
			-0.500329  0.858010  0.116143
			-0.363849  0.929893 -0.053971
			 0.055781  0.944835 -0.322763
			 0.498654  0.766999 -0.403803
			 0.745825  0.527975 -0.406186
			 0.991788  0.090801 -0.090069
			 0.422196 -0.474734  0.772255
			 0.016074 -0.423818  0.905605
			-0.178732 -0.592511  0.785484
			-0.299291 -0.518819  0.800782
			-0.380716 -0.317650  0.868420
			-0.614312 -0.024366  0.788687
			-0.734521  0.194906  0.649992
			-0.743369  0.272351  0.610923
			-0.752444  0.349464  0.558303
			-0.726750  0.505198  0.465413
			-0.638843  0.632833  0.437496
			-0.604152  0.524469  0.599943
			-0.389011  0.018747  0.921042
			-0.171300 -0.372502  0.912085
			 0.266839 -0.942366  0.201851
			 0.659188 -0.727372 -0.190789
			 0.599989 -0.796570  0.074086
			 0.606887 -0.665268 -0.434864
			 0.351825 -0.177068 -0.919166
			 0.206899 -0.009701 -0.978314
			 0.239715 -0.168706 -0.956073
			 0.214961 -0.299917 -0.929431
			 0.198942 -0.385026 -0.901208
			 0.123214 -0.560415 -0.818995
			 0.034653 -0.721303 -0.691752
			 0.070593 -0.747713 -0.660259
			 0.025151 -0.665402 -0.746061
			-0.067454  0.626803 -0.776252
			-0.121739  0.987996  0.095093
			-0.205182  0.909216  0.362252
			-0.061202  0.993881  0.091952
			 0.255889  0.889809 -0.377837
			 0.415545  0.580242 -0.700458
			 0.491485  0.386750 -0.780299
			 0.490427  0.311081 -0.814070
			-0.718198 -0.340115  0.607053
			-0.722804 -0.298881  0.623077
			-0.761072 -0.318252  0.565231
			-0.751414 -0.408973  0.517802
			-0.700677 -0.382906  0.602026
			-0.632490 -0.165971  0.756578
			-0.514583  0.099288  0.851672
			-0.552812  0.314012  0.771878
			-0.666332  0.451157  0.593682
			-0.712788  0.639563  0.287910
			-0.653837  0.731226  0.194437
			-0.533447  0.557315  0.636266
			-0.302452  0.020205  0.952950
			-0.091334 -0.368055  0.925307
			 0.421539 -0.854455  0.303662
			 0.522338 -0.809697 -0.267494
			 0.524639 -0.850408 -0.039500
			 0.610165 -0.671017 -0.421230
			 0.407608 -0.258893 -0.875689
			 0.212259 -0.099234 -0.972162
			 0.146486 -0.234904 -0.960917
			 0.109630 -0.322375 -0.940242
			 0.064419 -0.423856 -0.903436
			-0.009888 -0.602994 -0.797685
			-0.056140 -0.696149 -0.715699
			-0.124360 -0.724148 -0.678339
			-0.397248 -0.236956 -0.886593
			-0.621462  0.733629 -0.274908
			-0.391745  0.892835  0.222221
			-0.339685  0.907247  0.248025
			-0.146888  0.985824  0.081092
			 0.195902  0.903757 -0.380586
			 0.484988  0.613179 -0.623537
			 0.626392  0.392269 -0.673615
			 0.632567  0.261545 -0.729009
			-0.508975 -0.493945  0.704956
			-0.381224 -0.465833  0.798541
			-0.399954 -0.522174  0.753240
			-0.411479 -0.580259  0.702841
			-0.484447 -0.433627  0.759789
			-0.505049 -0.246124  0.827253
			-0.599680  0.107787  0.792948
			-0.691672  0.316952  0.648946
			-0.736818  0.414715  0.533958
			-0.725260  0.598635  0.340049
			-0.588131  0.705375  0.395662
			-0.490631  0.547735  0.677693
			-0.338074  0.070414  0.938482
			-0.185209 -0.376112  0.907875
			 0.359756 -0.877744  0.316450
			 0.392073 -0.870612 -0.297175
			 0.248802 -0.925690 -0.284948
			 0.193784 -0.813077 -0.548956
			 0.141264 -0.617939 -0.773432
			 0.058925 -0.489636 -0.869934
			 0.033836 -0.415129 -0.909133
			 0.115802 -0.430205 -0.895273
			 0.141432 -0.572884 -0.807342
			 0.204102 -0.683539 -0.700797
			 0.236077 -0.823411 -0.516006
			 0.306762 -0.856166 -0.415785
			 0.289930 -0.887995 -0.356938
			-0.490652  0.850364  0.190110
			-0.475566  0.875254  0.088135
			-0.529789  0.848089  0.008260
			-0.381872  0.915466  0.126871
			 0.102571  0.994079  0.035861
			 0.524117  0.851509 -0.015324
			 0.693298  0.690997  0.204599
			 0.508120  0.594999  0.622728
			-0.033593 -0.178933  0.983288
			-0.335582 -0.518827  0.786259
			-0.440264 -0.408030  0.799800
			-0.567173 -0.131911  0.812966
			-0.647958  0.106289  0.754224
			-0.653032  0.206320  0.728685
			-0.724903  0.351522  0.592409
			-0.752857  0.359184  0.551537
			-0.769763  0.439707  0.462734
			-0.772538  0.536868  0.339054
			-0.719463  0.424978  0.549333
			-0.498315  0.026205  0.866600
			-0.151077 -0.368644  0.917212
			 0.461053 -0.861432  0.212990
			 0.261504 -0.963006 -0.065074
			 0.211647 -0.911660 -0.352251
			 0.085792 -0.862839 -0.498146
			 0.126208 -0.662556 -0.738303
			 0.130086 -0.528599 -0.838845
			 0.181996 -0.353043 -0.917735
			 0.237927 -0.384351 -0.892000
			 0.312741 -0.440377 -0.841582
			 0.400584 -0.591079 -0.700113
			 0.410515 -0.774942 -0.480565
			 0.542708 -0.753673 -0.370737
			 0.667626 -0.706255 -0.235543
			-0.002585  0.961183  0.275899
			-0.210275  0.975234  0.068583
			-0.524937  0.846916  0.084697
			-0.627896  0.761681  0.159962
			-0.419837  0.905797  0.057175
			-0.138240  0.988843  0.055485
			 0.116269  0.983795  0.136485
			 0.106979  0.787943  0.606384
			-0.343291 -0.072102  0.936457
			-0.551022 -0.269734  0.789695
			-0.654760 -0.217263  0.723938
			-0.712624 -0.041028  0.700345
			-0.715996  0.010577  0.698024
			-0.779424  0.275518  0.562661
			-0.796336  0.412403  0.442462
			-0.814499  0.388977  0.430452
			-0.839115  0.464122  0.283685
			-0.832397  0.475695  0.284306
			-0.769853  0.298976  0.563862
			-0.503351 -0.083125  0.860074
			 0.061235 -0.503988  0.861537
			 0.390495 -0.877210  0.279313
			 0.286354 -0.904774  0.315254
			 0.326303  0.090187 -0.940953
			 0.134280 -0.862140 -0.488553
			 0.171317 -0.693294 -0.699996
			 0.211122 -0.482254 -0.850211
			 0.206915 -0.315753 -0.926006
			 0.227368 -0.257327 -0.939195
			 0.364167 -0.120670 -0.923483
			 0.451322 -0.439292 -0.776744
			 0.549281 -0.570513 -0.610578
			 0.748033 -0.496803 -0.440038
			 0.942616 -0.266443 -0.201206
			 0.634579  0.763011  0.122980
			 0.037573  0.972267  0.230836
			-0.357670  0.884253  0.300282
			-0.555624  0.806226  0.203179
			-0.550899  0.810653  0.198371
			-0.482549  0.818987  0.310496
			-0.169117  0.964295  0.203800
			-0.306728  0.778770  0.547206
			-0.623046  0.422712  0.658124
			-0.780317  0.168294  0.602314
			-0.846649  0.085452  0.525246
			-0.848666 -0.012251  0.528787
			-0.888683  0.069586  0.453212
			-0.911389  0.254683  0.323275
			-0.886444  0.389971  0.249278
			-0.900304  0.369497  0.230053
			-0.872896  0.368823  0.319410
			-0.792368  0.416944  0.445322
			-0.720626  0.174417  0.671027
			-0.362573 -0.295478  0.883874
			-0.031828 -0.693449  0.719802
			 0.128742 -0.936213  0.327002
			-0.090026  0.991370 -0.095289
			 0.378836 -0.865945 -0.326529
			 0.355956 -0.878045 -0.319895
			 0.468515 -0.735658 -0.489185
			 0.364175 -0.550045 -0.751550
			 0.463697 -0.329393 -0.822487
			 0.614684 -0.084563 -0.784228
			 0.659176  0.085370 -0.747127
			 0.631732 -0.207369 -0.746936
			 0.733762 -0.429688 -0.526272
			 0.858060 -0.300760 -0.416265
			 0.956309  0.042702 -0.289222
			 0.877865  0.391112  0.276377
			 0.468644  0.743696  0.476748
			 0.163054  0.887474  0.431048
			-0.128017  0.921168  0.367507
			-0.327859  0.892262  0.310447
			-0.582716  0.786487  0.204646
			-0.652630  0.704533  0.278762
			-0.561159  0.727563  0.394656
			-0.655003  0.603640  0.454521
			-0.661746  0.533752  0.526498
			-0.716313  0.489654  0.497127
			-0.756414  0.440001  0.483980
			-0.721035  0.490021  0.489886
			-0.722277  0.478447  0.499404
			-0.747010  0.290563  0.597954
			-0.644218  0.133721  0.753061
			-0.300488 -0.313209  0.900892
			-0.052363 -0.588284  0.806957
			-0.059546 -0.889006  0.454008
			-0.141993  0.757146 -0.637627
			 0.819430 -0.328410  0.469767
			 0.851928 -0.436713  0.288962
			 0.886483 -0.462521  0.014917
			 0.958812 -0.283422 -0.018747
			 0.972480 -0.047229  0.228151
			 0.988344  0.103630  0.111524
			 0.990988  0.091891  0.097459
			 0.909394 -0.245143  0.336017
			 0.869600 -0.317328  0.378284
			 0.862848 -0.213292  0.458258
			 0.870966  0.147848  0.468571
			 0.532240  0.651808  0.540247
			 0.425372  0.643762  0.636104
			 0.372135  0.546937  0.749917
			 0.235380  0.529392  0.815071
			 0.210946  0.688430  0.693950
			-0.237889  0.192541  0.952017
			-0.330500  0.343115  0.879228
			-0.043679  0.505784  0.861554
			 0.290981  0.473277  0.831468
			-0.216798  0.660885  0.718491
			 0.241324  0.360857  0.900858
			 0.052911  0.527471  0.847924
			 0.196294  0.415945  0.887952
			 0.298299  0.244831  0.922538
			 0.276282  0.056083  0.959439
			 0.292817 -0.104167  0.950478
			 0.620998  0.215870  0.753500
			-0.341737  0.395877 -0.852348
			-0.263448 -0.938888  0.221549
			-0.179400  0.946439 -0.268457
			 0.485930 -0.772851 -0.408135
			-0.875541  0.479370 -0.060276
			-0.916571 -0.394867 -0.063066
			-0.880886  0.123741  0.456867
			 0.801764 -0.104511 -0.588431
			 0.877129 -0.474098  0.076655
			 0.689481  0.063258 -0.721536
			 0.452876  0.303600 -0.838290
			-0.121788  0.900423 -0.417619
			-0.642344  0.558933  0.524394
			-0.707768 -0.278127  0.649392
			-0.381358 -0.600157  0.703120
			 0.343697 -0.748817  0.566697
			 0.708384 -0.624560 -0.328811
			 0.542248 -0.247861 -0.802828
			 0.323263  0.075252 -0.943313
			-0.032559  0.900521 -0.433591
			-0.679871  0.527911  0.509004
			-0.798615 -0.191762  0.570475
			-0.363245 -0.763146  0.534473
			 0.410387 -0.888873  0.203686
			 0.510349 -0.803066 -0.307617
			 0.360208 -0.511247 -0.780306
			 0.175815  0.088370 -0.980449
			-0.115487  0.956230 -0.268863
			-0.641682  0.626518  0.442402
			-0.806872 -0.238031  0.540647
			-0.016422 -0.954756  0.296936
			 0.507397 -0.861180 -0.030284
			 0.314091 -0.913258 -0.259436
			 0.148632 -0.648067 -0.746939
			-0.061546  0.157556 -0.985590
			-0.198163  0.953722 -0.226154
			-0.593368  0.639411  0.488945
			-0.448926 -0.511593  0.732624
			 0.372876 -0.899432  0.228001
			 0.460756 -0.887086  0.027966
			 0.138593 -0.973021 -0.184452
			-0.016436 -0.754130 -0.656520
			-0.207930  0.074603 -0.975295
			-0.259852  0.911992 -0.317408
			-0.359655  0.587684  0.724759
			 0.034410 -0.543501  0.838703
			 0.466124 -0.835153  0.291971
			 0.273243 -0.951343  0.142423
			 0.326279 -0.943422  0.059137
			 0.115696 -0.803231 -0.584324
			 0.006358  0.461695 -0.887016
			-0.103931  0.992261 -0.067944
			-0.239561  0.511550  0.825183
			 0.184869 -0.536686  0.823281
			 0.343659 -0.842743  0.414346
			 0.167875 -0.938915  0.300426
			 0.361788 -0.926758  0.101137
			 0.441557 -0.668871 -0.598029
			 0.276851  0.822614 -0.496648
			 0.107865  0.987065 -0.118609
			 0.027388  0.645789  0.763025
			 0.301986 -0.626467  0.718570
			 0.232478 -0.855591  0.462513
			-0.148943 -0.838736 -0.523772
			 0.525419 -0.848116 -0.068083
			 0.198164  0.976666  0.082790
			 0.088704  0.953137  0.289244
			 0.008846  0.609992  0.792358
			-0.152813 -0.452031  0.878815
			 0.040932 -0.994120  0.100251
			 0.439003 -0.822876  0.360765
			 0.614593  0.558381  0.557213
			 0.321741  0.036667  0.946118
			 0.255051 -0.434427  0.863841
			-0.517852 -0.023508 -0.855147
			 0.020901 -0.494944 -0.868673
			 0.004059 -0.985031 -0.172327
			 0.422669 -0.883974  0.199851
			 0.629900 -0.438651  0.640945
			 0.520761  0.485439  0.702252
			 0.025579  0.835151  0.549426
			-0.369331  0.820833  0.435693
			-0.656211  0.637800  0.403236
			-0.873848  0.459587 -0.158651
			-0.365043  0.096211 -0.926006
			-0.062420 -0.456581 -0.887490
			-0.137650 -0.924757 -0.354792
			 0.011187 -0.871642  0.490016
			 0.221137 -0.698354  0.680735
			 0.262332  0.109103  0.958790
			 0.049593  0.679150  0.732322
			-0.212049  0.811765  0.544126
			-0.396717  0.890715  0.221905
			-0.591399  0.741885 -0.315998
			 0.196407  0.497333 -0.845035
			 0.252303 -0.122973 -0.959802
			 0.070998 -0.880365 -0.468952
			 0.009868 -0.867827  0.496768
			 0.158046 -0.756360  0.634776
			 0.523483 -0.075489  0.848685
			 0.541738  0.775378  0.324513
			 0.342722  0.935144  0.089705
			 0.114541  0.961823 -0.248550
			 0.465130  0.687315 -0.557900
			 0.363438  0.288944 -0.885677
			 0.098169 -0.355543 -0.929490
			-0.300992 -0.870452 -0.389510
			-0.486530 -0.767404  0.417587
			-0.482885 -0.461618  0.744131
			-0.223797 -0.120894  0.967109
			 0.361204  0.753392  0.549483
			 0.512709  0.857171 -0.048866
			 0.502044  0.808792 -0.306280
			 0.437346  0.697003 -0.568256
			 0.480375  0.406428 -0.777210
			 0.141355 -0.367015 -0.919412
			-0.320381 -0.869818 -0.375196
			-0.594502 -0.704248  0.388074
			-0.628410 -0.302649  0.716592
			-0.420098  0.174071  0.890627
			 0.183106  0.805687  0.563330
			 0.439663  0.892806 -0.097946
			 0.497318  0.747130 -0.440990
			 0.529587  0.647072 -0.548485
			 0.401369  0.355956 -0.843919
			 0.011193 -0.429283 -0.903101
			-0.317494 -0.892246 -0.321084
			-0.553696 -0.785716  0.275811
			-0.513003 -0.458440  0.725714
			-0.176295  0.133578  0.975232
			 0.324687  0.759871  0.563182
			 0.509958  0.856802  0.076377
			 0.534335  0.765900 -0.357609
			 0.494681  0.628148 -0.600600
			 0.629316  0.134630 -0.765400
			 0.206939 -0.678171 -0.705167
			-0.327374 -0.929504 -0.169846
			-0.400342 -0.897320  0.185858
			-0.429237 -0.592492  0.681695
			 0.171536 -0.043714  0.984208
			 0.599485  0.508159  0.618379
			 0.737862  0.631140  0.239212
			 0.787972  0.602821 -0.125324
			 0.725873  0.517218 -0.453424
			 0.901569 -0.127010 -0.413572
			 0.583269 -0.700521 -0.411178
			-0.008215 -0.998885 -0.046478
			-0.198480 -0.946997  0.252592
			-0.174621 -0.737945  0.651878
			 0.413798 -0.290963  0.862619
			 0.675815  0.289531  0.677825
			 0.926676  0.254866  0.276251
			 0.982069  0.187640  0.018205
			 0.947674  0.228484 -0.222954
			 0.413273 -0.845792  0.337402
			 0.921458 -0.350443  0.167643
			 0.943218 -0.324515 -0.070915
			 0.597268 -0.790176 -0.137449
		</DataArray>
	</PointData>
	<Points>
		<DataArray type="Float32" NumberOfComponents="3" format="ascii">
			-0.095946 -0.141231 -0.047429
			-0.095371 -0.137337 -0.051033
			-0.096649 -0.132422 -0.054667
			-0.098317 -0.125682 -0.056591
			-0.100070 -0.117385 -0.059131
			-0.102634 -0.097964 -0.064056
			-0.101153 -0.072710 -0.068633
			-0.096269 -0.045399 -0.068823
			-0.093950 -0.032695 -0.068296
			-0.087888 -0.022383 -0.069131
			-0.081489 -0.013640 -0.069915
			-0.074226 -0.004101 -0.068758
			-0.067056  0.002985 -0.066162
			-0.069384  0.002680 -0.064373
			-0.077325 -0.004967 -0.066960
			-0.084060 -0.010918 -0.068258
			-0.088028 -0.015178 -0.069049
			-0.090220 -0.018770 -0.069065
			-0.093073 -0.022246 -0.068479
			-0.096934 -0.025812 -0.066987
			-0.098363 -0.027265 -0.066694
			-0.100035 -0.029167 -0.066175
			-0.099476 -0.031763 -0.067017
			-0.099330 -0.035718 -0.068478
			-0.101476 -0.042707 -0.070899
			-0.103621 -0.052941 -0.071947
			-0.105357 -0.071578 -0.069911
			-0.106055 -0.091886 -0.065062
			-0.104680 -0.110988 -0.062445
			-0.105030 -0.117713 -0.061065
			-0.105105 -0.123187 -0.057225
			-0.104339 -0.131918 -0.052765
			-0.101967 -0.138289 -0.047734
			-0.099461 -0.144129 -0.045909
			-0.097777 -0.144246 -0.045393
			-0.101489 -0.141091 -0.058358
			-0.102088 -0.136171 -0.061246
			-0.103856 -0.130011 -0.064107
			-0.105698 -0.122946 -0.067228
			-0.108690 -0.102523 -0.073136
			-0.107786 -0.076141 -0.077528
			-0.104647 -0.048136 -0.075809
			-0.102243 -0.035092 -0.075351
			-0.096576 -0.022076 -0.075494
			-0.090242 -0.012184 -0.073855
			-0.081033 -0.001404 -0.071761
			-0.077164  0.001514 -0.071219
			-0.077395  0.002098 -0.068976
			-0.080097  0.000517 -0.070590
			-0.086247 -0.004979 -0.071754
			-0.090461 -0.009585 -0.072640
			-0.092924 -0.013749 -0.073771
			-0.095367 -0.017892 -0.073220
			-0.098337 -0.023858 -0.074561
			-0.100360 -0.027556 -0.074060
			-0.102303 -0.031930 -0.073963
			-0.104685 -0.040579 -0.074122
			-0.105637 -0.045878 -0.075257
			-0.105747 -0.050951 -0.076142
			-0.106527 -0.059592 -0.075378
			-0.108606 -0.074775 -0.075771
			-0.109498 -0.094877 -0.073465
			-0.108100 -0.113611 -0.068500
			-0.107524 -0.119681 -0.067285
			-0.106360 -0.127978 -0.064557
			-0.104846 -0.136149 -0.060099
			-0.102069 -0.142766 -0.056467
			-0.091441 -0.129675 -0.036633
			-0.091778 -0.124638 -0.038742
			-0.091348 -0.120269 -0.040514
			-0.091611 -0.114111 -0.043380
			-0.093273 -0.106706 -0.045649
			-0.095021 -0.090991 -0.050290
			-0.093637 -0.067549 -0.055436
			-0.088059 -0.043101 -0.060674
			-0.086001 -0.031077 -0.060924
			-0.080106 -0.023230 -0.061243
			-0.073814 -0.016422 -0.063952
			-0.067169 -0.008476 -0.064620
			-0.061577 -0.001830 -0.061587
			-0.062663 -0.002371 -0.060260
			-0.074636 -0.010458 -0.064273
			-0.082794 -0.016399 -0.064623
			-0.085062 -0.018639 -0.064577
			-0.087502 -0.020988 -0.064388
			-0.091698 -0.023994 -0.063264
			-0.095801 -0.026673 -0.062228
			-0.097052 -0.027778 -0.061080
			-0.097986 -0.028226 -0.061593
			-0.096494 -0.030043 -0.062941
			-0.095934 -0.032772 -0.065135
			-0.095293 -0.037174 -0.066361
			-0.095575 -0.045704 -0.065381
			-0.097831 -0.066983 -0.056721
			-0.098043 -0.086845 -0.052666
			-0.096561 -0.104467 -0.048453
			-0.096651 -0.109850 -0.046636
			-0.098309 -0.113744 -0.043399
			-0.097719 -0.123154 -0.038774
			-0.095118 -0.128527 -0.035674
			-0.093269 -0.131780 -0.033935
			-0.090669 -0.132692 -0.034250
			-0.088591 -0.120416 -0.031800
			-0.088601 -0.116277 -0.034202
			-0.088261 -0.113026 -0.035215
			-0.088519 -0.108103 -0.037731
			-0.090018 -0.099241 -0.040840
			-0.090998 -0.087012 -0.043427
			-0.089208 -0.065141 -0.049282
			-0.083130 -0.041711 -0.054285
			-0.080077 -0.031379 -0.055096
			-0.075957 -0.024108 -0.056513
			-0.068781 -0.019772 -0.060009
			-0.061689 -0.012051 -0.060404
			-0.057796 -0.007430 -0.058194
			-0.058329 -0.007277 -0.057895
			-0.070578 -0.014776 -0.061903
			-0.084019 -0.021513 -0.059723
			-0.086800 -0.023302 -0.059910
			-0.090643 -0.024740 -0.058100
			-0.093806 -0.026052 -0.055879
			-0.094727 -0.026484 -0.054702
			-0.095401 -0.029074 -0.054406
			-0.094159 -0.029540 -0.055883
			-0.091611 -0.031063 -0.061250