<?xml version="1.0"?>
<VTKFile type="PolyData" version="0.1" byte_order="LittleEndian" compressor="vtkZLibDataCompressor">
	<PolyData>
		<Piece NumberOfPoints="172" NumberOfVerts="0" NumberOfLines="0" NumberOfStrips="0" NumberOfPolys="345">
		<PointData Normals="Normals">
		<DataArray type="Float32" Name="Normals" NumberOfComponents="3" format="ascii">
			 0.783535  0.209869 -0.584832
			 0.751767 -0.586375 -0.301679
			 0.084206 -0.729933 -0.678312
			 0.170659  0.138051 -0.975611
			 0.845459  0.155751 -0.510824
			 0.132371  0.110093 -0.985067
			 0.962591  0.066604 -0.262647
			 0.663376 -0.743685 -0.082851
			 0.031159 -0.992326 -0.119660
			-0.347468 -0.321008 -0.881034
			-0.373249 -0.741877 -0.557048
			-0.089857 -0.983239 -0.158642
			-0.808445  0.232418 -0.540739
			-0.851477  0.092394 -0.516188
			 0.305478  0.006682 -0.952176
			 0.847499  0.006917 -0.530752
			 0.949148  0.145723 -0.279076
			-0.491871 -0.151360 -0.857410
			 0.896566  0.224643  0.381712
			 0.983387 -0.156919 -0.091248
			 0.737536 -0.132058  0.662270
			 0.779715 -0.601825 -0.172776
			 0.094159 -0.935262 -0.341203
			 0.878476 -0.393548  0.270925
			-0.540508 -0.840249  0.042813
			-0.098602 -0.758127 -0.644609
			-0.984591  0.167608  0.049884
			-0.941174  0.077105 -0.329009
			-0.928543  0.154098  0.337732
			-0.307414 -0.054196 -0.950031
			-0.988727  0.137539 -0.059179
			-0.986754  0.073071 -0.144837
			 0.830184 -0.084923 -0.550984
			 0.966461  0.033768 -0.254583
			 0.849464  0.304713  0.430767
			 0.326086  0.222595  0.918760
			 0.030543  0.227280  0.973350
			 0.468665 -0.288521  0.834930
			 0.130652 -0.920909 -0.367229
			-0.529644 -0.826925  0.188869
			-0.775394 -0.618678  0.126499
			-0.894509 -0.263511  0.361131
			-0.967929 -0.213561 -0.132308
			-0.952977 -0.008301  0.302928
			-0.733236 -0.533994 -0.420969
			-0.857531  0.143603 -0.493982
			-0.996541  0.069464 -0.045604
			-0.956086 -0.030704 -0.291472
			-0.192932 -0.211685 -0.958106
			-0.939588  0.179727  0.291328
			-0.978358  0.113773  0.172833
			-0.999743  0.022671 -0.000003
			 0.820263 -0.141728 -0.554150
			 0.967442 -0.038046 -0.250217
			 0.956498  0.172419  0.235336
			 0.510006  0.285665  0.811350
			 0.255891  0.298496  0.919467
			-0.331330  0.232756  0.914355
			-0.529985  0.104917  0.841492
			-0.503063 -0.270930  0.820685
			-0.460810 -0.832902  0.306476
			 0.092326 -0.947871  0.304985
			-0.633748 -0.380617  0.673419
			-0.488157 -0.469098  0.735968
			-0.757254 -0.312733  0.573380
			-0.970236  0.034424  0.239703
			-0.903186  0.223238  0.366633
			-0.993991 -0.046238 -0.099216
			-0.940802 -0.121048 -0.316607
			-0.034872 -0.326271 -0.944633
			-0.621543  0.243812  0.744473
			-0.581848  0.199839  0.788363
			-0.488449  0.214375  0.845849
			-0.665608  0.188922  0.721993
			-0.808060  0.161158  0.566627
			 0.823597 -0.171354 -0.540672
			 0.938360 -0.094572 -0.332470
			 0.920416  0.106989  0.376016
			 0.229864  0.224499  0.946975
			-0.139701  0.249757  0.958178
			-0.248084  0.086200  0.964896
			-0.317793  0.192865  0.928338
			-0.403645  0.170516  0.898886
			-0.672139  0.281129  0.684978
			-0.999896 -0.011121  0.009242
			-0.925094 -0.154775 -0.346766
			 0.045833 -0.336821 -0.940452
			 0.317187  0.223528  0.921644
			 0.221128  0.289052  0.931424
			 0.734804 -0.271788 -0.621446
			 0.931890 -0.116897 -0.343388
			 0.943141  0.070605  0.324806
			 0.354652  0.338099  0.871729
			 0.164806  0.392340  0.904936
			-0.740479  0.278554  0.611636
			-0.999119 -0.015757 -0.038903
			-0.853587 -0.184928 -0.487022
			-0.123406 -0.394397 -0.910616
			 0.948921  0.077401  0.305872
			 0.943486  0.050193  0.327589
			 0.529058 -0.429624 -0.731792
			 0.930278 -0.196088 -0.310052
			 0.920179  0.046127  0.388771
			 0.174001  0.363563  0.915175
			-0.832250  0.251768  0.493935
			-0.997922 -0.010885 -0.063507
			-0.815796 -0.240854 -0.525801
			-0.184383 -0.455554 -0.870904
			 0.850605 -0.355962 -0.386991
			 0.391098 -0.475784 -0.787827
			 0.859899 -0.426360 -0.280697
			 0.919392 -0.020312  0.392817
			 0.945001 -0.236731  0.225680
			 0.837169  0.204576  0.507244
			-0.072229  0.467762  0.880898
			-0.686049  0.328754  0.649044
			-0.999647  0.025841  0.006171
			-0.803469 -0.236041 -0.546554
			-0.087507 -0.460371 -0.883403
			 0.296725 -0.351752 -0.887820
			 0.528286 -0.454355 -0.717269
			 0.892192 -0.379905 -0.244266
			 0.969616 -0.075482 -0.232694
			 0.849346  0.385154  0.360926
			 0.954525  0.275062 -0.114993
			 0.085155  0.363508  0.927691
			-0.712161  0.262374  0.651142
			-0.997990  0.030561  0.055512
			-0.179727 -0.267368 -0.946685
			-0.750477 -0.154075 -0.642686
			 0.546655 -0.251098 -0.798823
			 0.017259 -0.174159 -0.984566
			 0.338519 -0.168403 -0.925767
			 0.746229  0.099014 -0.658284
			 0.886991  0.008565 -0.461707
			 0.838071  0.272923  0.472387
			 0.018999  0.294054  0.955600
			-0.686612  0.192137  0.701175
			-0.994721 -0.053544  0.087541
			-0.678029 -0.221623 -0.700828
			-0.058802 -0.300763 -0.951885
			 0.397042 -0.212912 -0.892763
			 0.477285 -0.496826 -0.724819
			 0.921006 -0.331038 -0.205332
			 0.737492 -0.063113  0.672401
			-0.023945 -0.013348  0.999624
			-0.682954 -0.148402  0.715228
			-0.970197 -0.242155  0.008834
			-0.681922 -0.431716 -0.590426
			-0.082070 -0.518691 -0.851014
			-0.043113 -0.565227 -0.823808
			 0.447421 -0.595640 -0.667104
			 0.862543 -0.488520 -0.131786
			 0.727654 -0.128242  0.673850
			 0.078714  0.035505  0.996265
			-0.558061  0.129964  0.819560
			-0.999015 -0.039002  0.021151
			-0.611630 -0.382856 -0.692337
			 0.013015 -0.030166 -0.999460
			 0.539184  0.138222 -0.830768
			 0.927512  0.253171 -0.275001
			 0.658452  0.648795  0.381452
			 0.084788  0.891131  0.445753
			-0.447790  0.879844  0.159247
			-0.340266  0.923681 -0.176162
			-0.447288  0.620135 -0.644489
			 0.117565  0.847341 -0.517873
			 0.195185  0.900733 -0.388051
			 0.303701  0.905196 -0.297299
			 0.098687  0.982965 -0.155052
			 0.001703  0.980190 -0.198050
			 0.087455  0.981981 -0.167528
		</DataArray>
	</PointData>
	<Points>
		<DataArray type="Float32" NumberOfComponents="3" format="ascii">
			 0.002993 -0.210361  0.050970
			 0.003459 -0.215286  0.049657
			-0.000747 -0.215453  0.046218
			-0.005087 -0.197326  0.047192
			-0.000010 -0.194295  0.053039
			-0.002321 -0.209044  0.045463
			 0.006872 -0.210421  0.061912
			 0.005125 -0.213990  0.060495
			-0.003134 -0.214622  0.061010
			-0.002980 -0.212499  0.045355
			-0.007989 -0.212537  0.050527
			-0.004933 -0.214009  0.055331
			-0.012182 -0.197694  0.050309
			-0.009363 -0.187122  0.049796
			-0.005611 -0.188465  0.047576
			-0.000760 -0.186851  0.053100
			 0.002650 -0.194455  0.061074
			-0.014550 -0.205520  0.050380
			 0.007643 -0.204305  0.071215
			 0.008054 -0.209285  0.066400
			 0.004323 -0.213316  0.073282
			 0.004582 -0.215306  0.065406
			-0.000491 -0.215804  0.065022
			 0.007129 -0.211212  0.071058
			-0.009887 -0.216018  0.062706
			-0.011844 -0.214617  0.052757
			-0.012324 -0.197341  0.057292
			-0.016092 -0.206352  0.051643
			-0.014945 -0.208715  0.055486
			-0.006302 -0.168717  0.045704
			-0.010629 -0.187058  0.057842
			-0.008266 -0.167861  0.052957
			-0.001171 -0.168088  0.050645
			 0.001878 -0.185728  0.059385
			 0.004120 -0.193840  0.068097
			 0.004032 -0.205480  0.072262
			-0.000948 -0.205648  0.073875
			 0.002511 -0.218570  0.075671
			 0.003146 -0.219908  0.072384
			-0.004152 -0.217055  0.070020
			-0.010928 -0.213671  0.067288
			-0.014896 -0.214239  0.055363
			-0.011726 -0.209199  0.065417
			-0.012856 -0.210959  0.059907
			-0.017356 -0.212104  0.052391
			-0.016370 -0.209699  0.051770
			-0.012284 -0.197707  0.061604
			-0.005367 -0.135060  0.045448
			-0.003667 -0.135756  0.041154
			-0.010633 -0.186945  0.062951
			-0.008331 -0.167175  0.058269
			-0.006551 -0.133005  0.049896
			-0.002197 -0.135712  0.042767
			 0.001351 -0.167102  0.056457
			 0.002245 -0.185468  0.065189
			 0.000409 -0.185283  0.067253
			 0.001767 -0.194473  0.070240
			-0.002273 -0.196355  0.070493
			-0.004046 -0.207212  0.072572
			-0.000318 -0.218108  0.076092
			-0.001257 -0.220089  0.073548
			 0.000867 -0.220832  0.073939
			-0.005071 -0.215191  0.071919
			-0.008771 -0.214360  0.069765
			-0.012389 -0.211530  0.069155
			-0.013722 -0.206313  0.067125
			-0.012122 -0.196958  0.065245
			-0.006694 -0.108921  0.042576
			-0.005367 -0.110674  0.038274
			-0.003403 -0.111646  0.033654
			-0.009958 -0.197410  0.067656
			-0.006675 -0.166810  0.062596
			-0.008523 -0.186565  0.065493
			-0.005372 -0.131251  0.054459
			-0.006351 -0.107577  0.048383
			-0.001691 -0.111111  0.037159
			 0.001741 -0.134235  0.047776
			 0.001416 -0.166485  0.060872
			-0.001401 -0.166679  0.063318
			-0.003373 -0.185274  0.067732
			-0.008148 -0.209299  0.070188
			-0.007515 -0.197663  0.068926
			-0.011226 -0.207231  0.069749
			-0.006206 -0.078164  0.037705
			-0.007212 -0.080656  0.029577
			-0.006553 -0.081318  0.026313
			-0.003989 -0.081055  0.022732
			-0.001359 -0.131214  0.055283
			-0.001347 -0.106641  0.048726
			-0.000678 -0.079987  0.026400
			 0.001762 -0.109416  0.041140
			 0.002007 -0.133238  0.051741
			-0.001384 -0.076202  0.038196
			 0.000410 -0.055719  0.028896
			-0.006228 -0.057816  0.028245
			-0.007604 -0.060890  0.021712
			-0.006702 -0.061691  0.018940
			-0.003840 -0.061985  0.016339
			 0.002394 -0.108547  0.045592
			 0.002619 -0.077416  0.034776
			 0.000964 -0.060606  0.016949
			 0.002111 -0.078380  0.030856
			 0.005766 -0.058434  0.024220
			 0.001014 -0.036229  0.020504
			-0.006299 -0.037851  0.018318
			-0.007318 -0.040045  0.013150
			-0.006036 -0.042312  0.009885
			-0.001336 -0.044237  0.007569
			 0.005000 -0.059773  0.021577
			 0.003355 -0.044509  0.008852
			 0.007993 -0.044222  0.011860
			 0.008905 -0.042176  0.015882
			 0.010117 -0.036221  0.013972
			 0.011519 -0.030364  0.011775
			 0.002443 -0.027411  0.016021
			-0.006107 -0.027552  0.013121
			-0.007215 -0.029647  0.008292
			-0.006441 -0.031606  0.004495
			-0.002077 -0.034788  0.002404
			 0.004645 -0.030467  0.002515
			 0.009514 -0.038613  0.008080
			 0.011366 -0.037774  0.010040
			 0.012704 -0.031987  0.007614
			 0.009362 -0.021008  0.009447
			 0.011828 -0.026618  0.006995
			 0.002225 -0.018815  0.012315
			-0.004966 -0.019240  0.010278
			-0.006981 -0.021797  0.005532
			-0.001373 -0.030048 -0.000074
			-0.005411 -0.024028  0.001038
			 0.009466 -0.030349  0.004166
			-0.000913 -0.024897 -0.000439
			 0.003414 -0.024806  0.000263
			 0.008699 -0.023461  0.003324
			 0.007573 -0.018064  0.002764
			 0.007742 -0.016109  0.008095
			 0.001078 -0.014448  0.011000
			-0.004855 -0.015031  0.008530
			-0.007308 -0.017266  0.003963
			-0.005660 -0.018151 -0.000443
			-0.000557 -0.019175 -0.001499
			 0.003098 -0.019169 -0.000313
			 0.003665 -0.010819 -0.003872
			 0.007103 -0.009605  0.000263
			 0.006359 -0.007396  0.007118
			 0.000599 -0.006226  0.008573
			-0.005437 -0.006390  0.006670
			-0.008476 -0.005745  0.001115
			-0.006402 -0.007002 -0.004088
			-0.000290 -0.010393 -0.005391
			-0.000260 -0.007423 -0.007682
			 0.004964 -0.008153 -0.006143
			 0.009521 -0.006416 -0.001925
			 0.008137 -0.002949  0.007153
			 0.001213 -0.001738  0.010280
			-0.007270  0.000274  0.007902
			-0.010580 -0.001511  0.000113
			-0.007833 -0.002558 -0.007061
			 0.000187 -0.002902 -0.010020
			 0.006583 -0.003037 -0.008169
			 0.011050 -0.002257 -0.002816
			 0.008176  0.002179  0.005014
			 0.000961  0.003812  0.007809
			-0.006147  0.004282  0.006475
			-0.008905  0.001790 -0.001141
			-0.007176  0.000320 -0.007909
			 0.000396  0.000102 -0.007200
			 0.004780  0.000032 -0.006186
			 0.007876  0.001596 -0.002613
			 0.006860  0.002798  0.003537
			 0.000011  0.000028 -0.000009
			-0.002886  0.000842 -0.006011
		</DataArray>
	</Points>
			<Polys>
				<DataArray type="Int32" Name="connectivity" format="ascii">
					0 1 2
					3 4 0
					0 2 5
					3 0 5
					6 1 0
					4 6 0
					6 7 1
					8 1 7
					2 1 8
					2 9 5
					2 10 9
					10 2 11
					2 8 11
					3 12 13
					14 4 3
					3 13 14
					5 12 3
					14 15 4
					4 16 6
					15 16 4
					5 17 12
					9 17 5
					18 19 6
					7 6 19
					18 6 16
					20 21 7
					21 22 7
					19 23 7
					20 7 23
					8 7 22
					8 24 25
					8 25 11
					22 24 8
					9 10 17
					25 17 10
					10 11 25
					13 12 26
					12 27 28
					17 27 12
					12 28 26
					14 13 29
					13 30 31
					13 26 30
					13 31 29
					29 15 14
					29 32 15
					15 33 16
					32 33 15
					34 16 33
					18 16 34
					25 27 17
					19 18 23
					20 23 18
					34 35 18
					20 18 35
					20 35 36
					37 21 20
					36 37 20
					21 38 37
					38 22 21
					38 21 37
					22 39 24
					22 39 38
					38 39 22
					40 24 39
					24 41 25
					24 40 42
					41 24 43
					24 42 43
					25 41 44
					25 45 27
					44 45 25
					26 46 30
					28 43 26
					43 46 26
					27 45 41
					27 41 28
					41 43 28
					29 31 47
					48 32 29
					29 47 48
					31 30 49
					46 49 30
					31 50 51
					31 49 50
					31 51 47
					48 52 32
					32 53 33
					52 53 32
					54 33 53
					34 33 54
					34 54 55
					34 56 35
					34 55 56
					36 35 56
					57 58 36
					36 59 37
					36 56 57
					58 59 36
					37 59 60
					37 61 38
					37 60 61
					38 61 60
					38 60 39
					39 60 59
					39 62 63
					39 59 62
					40 39 63
					42 40 64
					63 64 40
					45 44 41
					65 46 42
					43 42 46
					42 64 65
					66 46 65
					46 66 49
					47 51 67
					68 48 47
					47 67 68
					68 69 48
					69 52 48
					49 66 70
					71 50 49
					49 70 72
					71 49 72
					73 51 50
					73 50 71
					74 67 51
					74 51 73
					69 75 52
					52 76 53
					75 76 52
					77 53 76
					54 53 77
					77 55 54
					77 78 55
					79 55 78
					56 55 79
					56 79 57
					80 58 57
					57 79 72
					80 57 81
					57 72 81
					58 62 59
					63 62 58
					63 58 80
					80 64 63
					64 82 65
					80 82 64
					65 82 70
					65 70 66
					83 84 67
					85 68 67
					83 67 74
					85 67 84
					85 69 68
					85 86 69
					86 75 69
					81 70 82
					72 70 81
					71 78 87
					72 78 71
					71 87 73
					72 79 78
					88 74 73
					88 73 87
					83 74 88
					86 89 75
					75 90 76
					89 90 75
					91 76 90
					77 76 91
					91 78 77
					91 87 78
					81 82 80
					83 92 93
					94 84 83
					83 93 94
					83 88 92
					85 84 95
					94 95 84
					96 86 85
					85 95 96
					96 97 86
					97 89 86
					98 88 87
					98 87 91
					99 92 88
					99 88 98
					97 100 89
					89 101 90
					100 101 89
					98 90 101
					91 90 98
					102 93 92
					102 92 99
					103 93 102
					94 93 103
					104 95 94
					94 103 104
					96 95 105
					104 105 95
					106 97 96
					96 105 106
					106 107 97
					107 100 97
					98 101 99
					99 101 108
					99 108 102
					107 109 100
					100 108 101
					109 108 100
					102 108 110
					102 110 111
					103 102 111
					112 103 111
					113 114 103
					115 104 103
					113 103 112
					103 114 112
					115 103 114
					115 105 104
					106 105 116
					115 116 105
					107 106 117
					106 116 117
					118 109 107
					107 117 118
					109 110 108
					118 119 109
					120 110 109
					119 120 109
					111 110 112
					110 120 121
					121 112 110
					122 113 112
					114 113 112
					122 112 121
					123 114 113
					124 123 113
					124 113 122
					123 125 114
					115 114 125
					126 116 115
					115 125 126
					117 116 127
					126 127 116
					128 117 129
					118 117 128
					117 127 129
					128 119 118
					119 130 120
					128 131 119
					119 131 132
					132 130 119
					121 120 130
					121 130 122
					122 130 133
					122 133 124
					123 133 134
					124 133 123
					123 134 135
					135 125 123
					135 136 125
					126 125 136
					137 127 126
					126 136 137
					129 127 138
					137 138 127
					128 129 131
					131 129 139
					129 138 139
					132 133 130
					131 140 141
					131 141 132
					131 139 140
					141 133 132
					141 134 133
					142 143 134
					135 134 143
					142 134 141
					135 143 144
					144 136 135
					144 145 136
					137 136 145
					146 138 137
					137 145 146
					139 138 147
					146 147 138
					148 140 139
					139 147 148
					148 149 140
					149 141 140
					149 142 141
					150 151 142
					151 143 142
					150 142 149
					151 152 143
					144 143 152
					144 152 153
					153 145 144
					153 154 145
					146 145 154
					146 155 156
					146 154 155
					146 156 147
					148 147 156
					157 149 148
					148 156 157
					157 150 149
					158 150 157
					158 151 150
					158 159 151
					159 152 151
					159 160 152
					153 152 160
					153 160 161
					161 154 153
					161 162 154
					155 154 162
					163 156 155
					155 162 163
					156 164 165
					163 164 156
					156 165 157
					157 165 158
					166 159 158
					165 166 158
					166 167 159
					167 160 159
					167 168 160
					161 160 168
					169 162 161
					161 168 169
					170 162 169
					163 162 170
					164 163 170
					171 164 170
					171 165 164
					165 171 166
					170 167 166
					167 166 171
					170 168 167
					167 171 170
					170 169 168
				</DataArray>
				<DataArray type="Int32" Name="offsets" format="ascii">
					3 6 9 12 15 18 21 24 27 30 33 36 39 42 45 48 51 54 57 60 63 66 69 72 75 78 81 84 87 90 93 96 99 102 105 108 111 114 117 120 123 126 129 132 135 138 141 144 147 150 153 156 159 162 165 168 171 174 177 180 183 186 189 192 195 198 201 204 207 210 213 216 219 222 225 228 231 234 237 240 243 246 249 252 255 258 261 264 267 270 273 276 279 282 285 288 291 294 297 300 303 306 309 312 315 318 321 324 327 330 333 336 339 342 345 348 351 354 357 360 363 366 369 372 375 378 381 384 387 390 393 396 399 402 405 408 411 414 417 420 423 426 429 432 435 438 441 444 447 450 453 456 459 462 465 468 471 474 477 480 483 486 489 492 495 498 501 504 507 510 513 516 519 522 525 528 531 534 537 540 543 546 549 552 555 558 561 564 567 570 573 576 579 582 585 588 591 594 597 600 603 606 609 612 615 618 621 624 627 630 633 636 639 642 645 648 651 654 657 660 663 666 669 672 675 678 681 684 687 690 693 696 699 702 705 708 711 714 717 720 723 726 729 732 735 738 741 744 747 750 753 756 759 762 765 768 771 774 777 780 783 786 789 792 795 798 801 804 807 810 813 816 819 822 825 828 831 834 837 840 843 846 849 852 855 858 861 864 867 870 873 876 879 882 885 888 891 894 897 900 903 906 909 912 915 918 921 924 927 930 933 936 939 942 945 948 951 954 957 960 963 966 969 972 975 978 981 984 987 990 993 996 999 1002 1005 1008 1011 1014 1017 1020 1023 1026 1029 1032 1035
				</DataArray>
			</Polys>
		</Piece>
	</PolyData>
</VTKFile>
