<?xml version="1.0"?>
<VTKFile type="PolyData" version="0.1" byte_order="LittleEndian" compressor="vtkZLibDataCompressor">
	<PolyData>
		<Piece NumberOfPoints="5434" NumberOfVerts="0" NumberOfLines="0" NumberOfStrips="0" NumberOfPolys="9510">
		<PointData Normals="Normals">
		<DataArray type="Float32" Name="Normals" NumberOfComponents="3" format="ascii">
			 0.435663 -0.396804  0.807926
			-0.220975 -0.571064  0.790605
			 0.419261 -0.891257  0.172860
			 0.846852 -0.454857 -0.275584
			 0.903213 -0.397902  0.160876
			 0.775008 -0.178512  0.606215
			 0.397595 -0.332114  0.855347
			-0.156331 -0.591708  0.790849
			-0.536405 -0.711301  0.454225
			-0.915717 -0.377960  0.136410
			-0.469215 -0.881362 -0.055125
			-0.424177  0.667085  0.612431
			 0.738098  0.304673  0.601985
			 0.708522  0.359521  0.607241
			-0.685926  0.608089  0.399666
			-0.831137  0.555501  0.025103
			-0.915702 -0.377952  0.136536
			-0.884726  0.120283  0.450325
			-0.537106  0.303007  0.787213
			 0.036886  0.512775  0.857730
			 0.672311  0.277313  0.686364
			 0.347274  0.923469  0.163112
			 0.347350  0.923580 -0.162324
			-0.028905  0.932138  0.360949
			-0.245496 -0.101284  0.964092
			 0.396788  0.163877  0.903163
			 0.406095 -0.425402  0.808777
			-0.261108 -0.555016  0.789797
			 0.353655 -0.919128  0.173587
			 0.911049 -0.187948 -0.366968
			 0.966229 -0.155309  0.205625
			 0.760848 -0.230451  0.606632
			 0.372961 -0.358691  0.855711
			-0.197760 -0.580772  0.789681
			-0.583757 -0.674108  0.452555
			-0.938687 -0.316744  0.136162
			-0.957898 -0.278342 -0.070398
			-0.375365  0.695902  0.612227
			 0.757205  0.255157  0.601278
			 0.730965  0.313079  0.606360
			-0.641164  0.655434  0.399143
			-0.709685  0.704227  0.020282
			-0.981011  0.151781  0.120748
			-0.874590  0.179198  0.450534
			-0.514424  0.338762  0.787787
			 0.073210  0.509844  0.857146
			 0.689728  0.232427  0.685750
			 0.410172  0.897418  0.162479
			 0.410182  0.897569 -0.161621
			 0.036737  0.931980  0.360643
			-0.251944 -0.085225  0.963982
			 0.407204  0.137170  0.902978
			 0.368658 -0.455936  0.810070
			-0.306941 -0.532182  0.789031
			 0.274127 -0.945661  0.174874
			 0.893223 -0.258603 -0.367800
			 0.950937 -0.231063  0.205738
			 0.739564 -0.290135  0.607344
			 0.341573 -0.387840  0.856101
			-0.245459 -0.563985  0.788461
			-0.636269 -0.625963  0.450923
			-0.960500 -0.242803  0.135965
			-0.976865 -0.201958 -0.070346
			-0.314859  0.725405  0.612088
			 0.775188  0.196125  0.600515
			 0.753165  0.257622  0.605287
			-0.583465  0.707404  0.398934
			-0.648613  0.760847  0.020329
			-0.965901  0.228959  0.120886
			-0.857367  0.248037  0.450998
			-0.484244  0.378979  0.788595
			 0.115992  0.502948  0.856498
			 0.706204  0.178255  0.685202
			 0.481810  0.861236  0.161653
			 0.482026  0.861278 -0.160785
			 0.114632  0.925766  0.360300
			-0.258149 -0.065438  0.963886
			 0.417007  0.105292  0.902784
			 0.295318 -0.502633  0.812494
			-0.383847 -0.481691  0.787804
			 0.126075 -0.976140  0.176793
			 0.847337 -0.381483 -0.369448
			 0.908111 -0.364288  0.206469
			 0.688747 -0.392847  0.609343
			 0.278403 -0.433105  0.857270
			-0.328075 -0.523736  0.786173
			-0.720587 -0.529036  0.448192
			-0.985023 -0.106185  0.135845
			-0.995626 -0.061822 -0.070056
			-0.199737  0.764668  0.612689
			 0.795544  0.085644  0.599812
			 0.782270  0.152272  0.604042
			-0.468159  0.788017  0.399821
			-0.526361  0.850015  0.020445
			-0.923265  0.364451  0.121480
			-0.812217  0.367839  0.452767
			-0.421007  0.444738  0.790545
			 0.191761  0.481788  0.855049
			 0.724745  0.077954  0.684593
			 0.603459  0.781111  0.160319
			 0.603504  0.781250 -0.159473
			 0.253378  0.898318  0.358921
			-0.265099 -0.028834  0.963790
			 0.428058  0.045844  0.902588
			 0.278663 -0.511274  0.812986
			-0.399298 -0.469396  0.787546
			 0.093814 -0.979680  0.177275
			 0.835254 -0.407050 -0.369677
			 0.896451 -0.391970  0.206722
			 0.675808 -0.413851  0.609927
			 0.263889 -0.441391  0.857634
			-0.345109 -0.513281  0.785775
			-0.736885 -0.506619  0.447591
			-0.987790 -0.076239  0.135860
			-0.997066 -0.031218 -0.069897
			-0.174273  0.770810  0.612765
			 0.797800  0.061445  0.599782
			 0.786561  0.128951  0.603898
			-0.441743  0.803037  0.399994
			-0.498429  0.866687  0.020548
			-0.911556  0.392751  0.121702
			-0.800339  0.392584  0.453139
			-0.406276  0.457666  0.790874
			 0.207338  0.475831  0.854749
			 0.726777  0.056161  0.684574
			 0.627912  0.761639  0.160104
			 0.628117  0.761652 -0.159232
			 0.282777  0.889591  0.358699
			-0.265894 -0.020913  0.963776
			 0.429272  0.032718  0.902582
			 0.166775 -0.552581  0.816603
			-0.487606 -0.378823  0.786596
			-0.112627 -0.977153  0.180242
			 0.739312 -0.561439 -0.371758
			 0.800961 -0.561180  0.208658
			 0.577045 -0.538806  0.613764
			 0.164839 -0.483976  0.859416
			-0.445192 -0.433837  0.783320
			-0.823754 -0.350764  0.445414
			-0.983872  0.116071  0.136104
			-0.983978  0.164309 -0.069205
			-0.006824  0.788877  0.614513
			 0.794326 -0.094028  0.600171
			 0.797125 -0.022731  0.603387
			-0.259931  0.877286  0.403491
			-0.306104  0.951772  0.020748
			-0.815954  0.564897  0.122924
			-0.704778  0.542697  0.456910
			-0.301177  0.528109  0.793973
			 0.303717  0.424279  0.853079
			 0.723547 -0.085844  0.684917
			 0.770086  0.617875  0.158739
			 0.770128  0.618028 -0.157935
			 0.464077  0.810847  0.356596
			-0.264544  0.030860  0.963880
			 0.427326 -0.050727  0.902673
			 0.064975 -0.549518  0.832952
			-0.624310 -0.248278  0.740672
			-0.455538 -0.867918  0.197996
			 0.680589 -0.630029 -0.373982
			 0.737946 -0.651304  0.176748
			 0.553725 -0.613589  0.562936
			 0.127636 -0.510146  0.850565
			-0.548406 -0.372281  0.748771
			-0.898200 -0.238629  0.369180
			-0.968492  0.222512  0.111852
			-0.949633  0.303096 -0.079565
			 0.168397  0.816122  0.552799
			 0.835078 -0.191928  0.515566
			 0.856580 -0.056985  0.512858
			-0.144477  0.945694  0.291187
			-0.156638  0.987502  0.017423
			-0.748320  0.655161  0.103832
			-0.668640  0.629603  0.395627
			-0.251385  0.574966  0.778601
			 0.413283  0.373744  0.830369
			 0.768426 -0.176622  0.615082
			 0.856027  0.500795  0.128148
			 0.856180  0.500754 -0.127281
			 0.551462  0.746822  0.371681
			-0.307932  0.070352  0.948804
			 0.463525 -0.106753  0.879630
			 0.127424 -0.561462  0.817633
			-0.598507 -0.331135  0.729478
			-0.366976 -0.929333  0.040850
			 0.695801 -0.610570 -0.378240
			 0.757931 -0.619293  0.204981
			 0.602491 -0.582179  0.545961
			 0.207309 -0.523931  0.826147
			-0.482395 -0.400577  0.778995
			-0.849446 -0.291559  0.439811
			-0.973961  0.181252  0.136193
			-0.970725  0.230112 -0.068851
			 0.049950  0.786913  0.615039
			 0.785929 -0.146444  0.600724
			 0.793704 -0.074866  0.603680
			-0.195201  0.893263  0.404941
			-0.237158  0.971246  0.020900
			-0.775786  0.618826  0.123327
			-0.665762  0.588834  0.458296
			-0.262684  0.546751  0.795022
			 0.420897  0.397901  0.815182
			 0.783512 -0.146122  0.603951
			 0.811451  0.562524  0.158472
			 0.811489  0.562700 -0.157656
			 0.408946  0.872114  0.268663
			-0.360962  0.066789  0.930186
			 0.422641 -0.079074  0.902841
			 0.094623 -0.558111  0.824353
			-0.539882 -0.316213  0.780088
			-0.250717 -0.954106  0.163775
			 0.678069 -0.622773 -0.390354
			 0.741942 -0.636470  0.210779
			 0.517683 -0.591399  0.618264
			 0.109721 -0.495757  0.861502
			-0.491165 -0.386608  0.780571
			-0.855433 -0.268553  0.442848
			-0.968747  0.207232  0.136320
			-0.961212  0.265014 -0.076420
			 0.082025  0.783180  0.616361
			 0.781466 -0.167528  0.601037
			 0.793883 -0.079877  0.602801
			-0.172977  0.906076  0.386143
			-0.199577  0.979657  0.021017
			-0.756949  0.641568  0.124170
			-0.646573  0.607827  0.460966
			-0.241523  0.553156  0.797298
			 0.349937  0.390966  0.851287
			 0.711780 -0.152755  0.685592
			 0.830306  0.534578  0.157540
			 0.830371  0.534721 -0.156710
			 0.551789  0.754983  0.354301
			-0.260033  0.055359  0.964012
			 0.420271 -0.090322  0.902892
			 0.052112 -0.550526  0.833190
			-0.629802 -0.233834  0.740723
			-0.475545 -0.857054  0.198281
			 0.665884 -0.645305 -0.374407
			 0.722673 -0.668218  0.176714
			 0.539047 -0.626070  0.563440
			 0.114969 -0.512738  0.850813
			-0.557530 -0.359241  0.748402
			-0.903586 -0.217712  0.368964
			-0.963227  0.244252  0.111961
			-0.942526  0.324524 -0.079560
			 0.187974  0.811654  0.553068
			 0.830375 -0.210792  0.515795
			 0.854998 -0.076367  0.512978
			-0.121316  0.948770  0.291752
			-0.132943  0.990970  0.017442
			-0.733149  0.672070  0.103995
			-0.653811  0.644720  0.396064
			-0.237592  0.580421  0.778884
			 0.422133  0.363993  0.830249
			 0.764133 -0.193855  0.615240
			 0.867533  0.480594  0.128121
			 0.867732  0.480482 -0.127197
			 0.569371  0.733312  0.371577
			-0.306134  0.077290  0.948846
			 0.460870 -0.117213  0.879693
			-0.107847 -0.600600 -0.792242
			 0.423750 -0.299415 -0.854860
			 0.787115 -0.117656 -0.605481
			 0.794165 -0.599273 -0.100867
			 0.857218 -0.499429  0.125486
			 0.786747 -0.118051  0.605882
			 0.423223 -0.299920  0.854945
			-0.108391 -0.600926  0.791922
			-0.479135 -0.750046  0.455918
			-0.884255 -0.446537  0.136738
			-0.296621 -0.954449  0.032283
			-0.873655 -0.441412 -0.204654
			-0.174449 -0.886038 -0.429539
			-0.840900  0.073648 -0.536156
			-0.926248  0.351189 -0.136864
			-0.807511  0.589506  0.020213
			-0.992654  0.009046  0.120652
			-0.891398  0.051725  0.450259
			-0.560050  0.259908  0.786633
			-0.004925  0.512838  0.858471
			 0.648620  0.327265  0.687160
			 0.272970  0.947959  0.163891
			 0.273124  0.948056 -0.163071
			 0.361530  0.703330 -0.612065
			 0.236474  0.119478 -0.964264
			-0.382775 -0.193061 -0.903444
			 0.215592 -0.537838  0.815016
			-0.452252 -0.419644  0.786999
			-0.024640 -0.983540  0.179004
			 0.783986 -0.497868 -0.370800
			 0.845847 -0.491294  0.207782
			 0.622394 -0.487917  0.612016
			 0.208317 -0.468414  0.858599
			-0.404395 -0.470635  0.784199
			-0.790420 -0.419843  0.446059
			-0.990145  0.033798  0.135907
			-0.994268  0.081233 -0.069521
			-0.078807  0.785754  0.613498
			 0.799612 -0.027511  0.599887
			 0.796234  0.042630  0.603484
			-0.339554  0.850490  0.401709
			-0.390573  0.920340  0.020657
			-0.861107  0.493497  0.122292
			-0.749599  0.480611  0.455098
			-0.348048  0.500555  0.792659
			 0.263833  0.448807  0.853794
			 0.728423 -0.025264  0.684662
			 0.712962  0.682871  0.159287
			 0.713079  0.682950 -0.158423
			 0.388441  0.849287  0.357525
			-0.266389  0.008924  0.963824
			 0.430249 -0.015128  0.902583
			-0.974640 -0.211352 -0.073532
			 0.894260 -0.242178 -0.376362
			 0.235258 -0.956029  0.175107
			-0.325763 -0.532982  0.780902
			 0.777319  0.212080  0.592281
			 0.356579 -0.451737  0.817793
			-0.300876  0.734441  0.608334
			 0.953815 -0.219485  0.205094
			 0.742203 -0.281491  0.608192
			 0.338255 -0.385997  0.858248
			-0.635963 -0.635018  0.438524
			-0.253411 -0.570863  0.780960
			-0.956077 -0.260998  0.133407
			 0.750220  0.287450  0.595435
			-0.581112  0.717316  0.384404
			-0.641033  0.767248  0.020173
			-0.968639  0.217353  0.120400
			-0.860995  0.237615  0.449696
			-0.481445  0.376725  0.791384
			 0.125775  0.508821  0.851635
			 0.708551  0.193487  0.678615
			 0.483161  0.861499  0.156127
			 0.483217  0.861632 -0.155216
			 0.122138  0.925248  0.359164
			-0.261406 -0.071787  0.962556
			 0.419375  0.114159  0.900606
			 0.164248 -0.504045  0.847916
			-0.541118 -0.385383  0.747443
			-0.208791 -0.977080  0.041487
			 0.780644 -0.405041 -0.475960
			 0.876362 -0.437273  0.201948
			 0.661665 -0.447806  0.601389
			 0.249862 -0.454740  0.854857
			-0.370400 -0.496097  0.785297
			-0.764772 -0.468031  0.442800
			-0.990825 -0.022688  0.133236
			-0.989877  0.081252 -0.116371
			-0.139890  0.783188  0.605844
			 0.806252  0.018287  0.591290
			 0.778084  0.214689  0.590334
			-0.492679  0.831638  0.256213
			-0.460842  0.887258  0.019975
			-0.890860  0.438497  0.118701
			-0.784471  0.433123  0.443858
			-0.390574  0.478591  0.786386
			 0.231072  0.464940  0.854656
			 0.735049  0.016646  0.677810
			 0.664029  0.730750  0.158333
			 0.664160  0.730839 -0.157370
			 0.316125  0.876549  0.362941
			-0.271422 -0.006394  0.962439
			 0.435117  0.009752  0.900321
			-0.121829 -0.456668  0.881256
			-0.684518 -0.007881  0.728954
			-0.765636 -0.639586 -0.068787
			 0.506515 -0.666382 -0.547154
			 0.568713 -0.797142  0.202805
			 0.373842 -0.705498  0.602092
			 0.010112 -0.519868  0.854186
			-0.552846 -0.267567  0.789157
			-0.891351 -0.056688  0.449756
			-0.884184  0.447208  0.134993
			-0.808022  0.572731 -0.138125
			 0.231586  0.758767  0.608803
			 0.716105 -0.362590  0.596425
			 0.810783 -0.059942  0.582269
			-0.070169  0.978824  0.192300
			-0.000185  0.999795  0.020251
			-0.580967  0.805100  0.119544
			-0.488614  0.749863  0.446052
			-0.123025  0.606117  0.785803
			 0.415007  0.305422  0.857022
			 0.652511 -0.330460  0.681928
			 0.926806  0.339137  0.161298
			 0.926894  0.339318 -0.160407
			 0.685147  0.631526  0.362972
			-0.239664  0.120837  0.963306
			 0.385695 -0.195586  0.901657
			 0.059572 -0.522306  0.850675
			-0.606312 -0.271566  0.747421
			-0.401608 -0.914687  0.045374
			 0.688211 -0.546369 -0.477333
			 0.773868 -0.599705  0.203671
			 0.557914 -0.567679  0.605370
			 0.149601 -0.493534  0.856764
			-0.465468 -0.412967  0.782814
			-0.842579 -0.309713  0.440612
			-0.976863  0.167038  0.133557
			-0.955655  0.270900 -0.115486
			 0.026613  0.793758  0.607651
			 0.794231 -0.136096  0.592178
			 0.805596  0.063195  0.589086
			-0.306823  0.915317  0.260873
			-0.268176  0.963157  0.020239
			-0.788124  0.603715  0.119954
			-0.682904  0.577283  0.447645
			-0.283459  0.544498  0.789413
			 0.322995  0.409776  0.853087
			 0.724075 -0.124084  0.678468
			 0.797324  0.582716  0.157216
			 0.797469  0.582774 -0.156262
			 0.491707  0.792565  0.360646
			-0.267119  0.045321  0.962597
			 0.428464 -0.073650  0.900552
			 0.446444 -0.360008  0.819196
			-0.193286 -0.587473  0.785822
			 0.444791 -0.872438  0.202518
			 0.931488 -0.045024 -0.360976
			 0.978087 -0.013240  0.207777
			 0.779677 -0.120971  0.614386
			 0.401645 -0.310786  0.861448
			-0.137152 -0.615523  0.776093
			-0.490613 -0.755951  0.433402
			-0.876274 -0.462982  0.133389
			-0.903681 -0.423536 -0.063072
			-0.431129  0.664760  0.610100
			 0.712557  0.376474  0.592056
			 0.676564  0.435328  0.593928
			-0.682080  0.603051  0.413638
			-0.775853  0.630584  0.020382
			-0.992488  0.007764  0.122098
			-0.889013  0.051466  0.454981
			-0.540625  0.271373  0.796292
			 0.025756  0.528544  0.848515
			 0.649597  0.343182  0.678418
			 0.300597  0.941298  0.153619
			 0.300729  0.941385 -0.152828
			-0.055710  0.932899  0.355803
			-0.239760 -0.126633  0.962538
			 0.384465  0.203078  0.900525
			 0.054098 -0.439416  0.896653
			-0.682806 -0.178517  0.708454
			-0.621853 -0.749325  0.227621
			 0.668646 -0.651039 -0.359251
			 0.955365 -0.238335  0.174566
			 0.788624 -0.198297  0.582023
			 0.119848 -0.521992  0.844489
			-0.602723 -0.412027  0.683343
			-0.902946 -0.326398  0.279557
			-0.994615  0.051113  0.090161
			-0.977930  0.194800 -0.075536
			 0.292419  0.822824  0.487290
			 0.901256 -0.046333  0.430802
			 0.902153  0.173883  0.394823
			-0.050550  0.972634  0.226777
			-0.110241  0.993780  0.015771
			-0.833909  0.543572  0.095523
			-0.763393  0.530325  0.368763
			-0.259786  0.530945  0.806603
			 0.485993  0.341103  0.804648
			 0.803884 -0.208685  0.556975
			 0.883595  0.455710  0.107650
			 0.883736  0.455653 -0.106732
			 0.587607  0.718753  0.371634
			-0.348796  0.090117  0.932856
			 0.514879 -0.024128  0.856923
			 0.392755 -0.851675 -0.346976
			 0.130161 -0.509204 -0.850746
			 0.556470 -0.611201 -0.562828
			 0.276439 -0.954794 -0.109314
			 0.276380 -0.954872  0.108779
			 0.556128 -0.611467  0.562876
			 0.129551 -0.509675  0.850557
			-0.547064 -0.374407  0.748692
			-0.897319 -0.242086  0.369071
			-0.969384  0.218576  0.111888
			-0.867169 -0.497412  0.024471
			-0.350065 -0.762821  0.543654
			 0.835915 -0.188454  0.515491
			 0.859286  0.248710  0.446957
			-0.350065 -0.762821  0.543654
			-0.291265  0.956399  0.021578
			-0.479022  0.873919  0.082476
			-0.671086  0.627004  0.395613
			-0.253621  0.574041  0.778559
			 0.411790  0.375369  0.830378
			 0.769119 -0.173571  0.615084
			 0.959099  0.230652  0.164099
			 0.854084  0.504322 -0.127278
			 0.802117  0.276455 -0.529322
			 0.412327  0.375832 -0.829902
			 0.789243  0.524880 -0.318741
			-0.009100 -0.500006  0.865974
			-0.709437 -0.142045  0.690306
			-0.727481 -0.658330  0.193322
			 0.704453 -0.585805 -0.400722
			 0.734907 -0.659966  0.156065
			 0.573992 -0.625873  0.528031
			 0.121168 -0.514505  0.848883
			-0.610043 -0.332092  0.719418
			-0.933348 -0.176617  0.312519
			-0.958597  0.268544  0.094741
			-0.916918  0.389640 -0.086268
			 0.284930  0.819094  0.497896
			 0.860190 -0.241233  0.449311
			 0.901363 -0.013754  0.432846
			-0.078433  0.976690  0.199814
			-0.074168  0.997133  0.014986
			-0.713201  0.695131  0.090205
			-0.652631  0.672129  0.349737
			-0.222562  0.599791  0.768581
			 0.488511  0.348743  0.799835
			 0.812945 -0.182689  0.552943
			 0.879893  0.463583  0.104305
			 0.879860  0.463833 -0.103466
			 0.586031  0.721459  0.368869
			-0.352016  0.078725  0.932677
			 0.489261 -0.137852  0.861174
			 0.009850 -0.466441  0.884498
			-0.722074 -0.144178  0.676626
			-0.752369 -0.627678  0.199905
			 0.730857 -0.562096 -0.387164
			 0.754654 -0.639885  0.145070
			 0.607524 -0.613565  0.504433
			 0.147990 -0.517047  0.843066
			-0.613675 -0.366001  0.699604
			-0.929997 -0.234388  0.283141
			-0.977676  0.191272  0.086972
			-0.939086  0.333400 -0.083442
			 0.284652  0.835704  0.469651
			 0.892024 -0.174520  0.416937
			 0.916400  0.087916  0.390490
			-0.100249  0.979170  0.176570
			-0.094858  0.995390  0.014183
			-0.761768  0.642222  0.085210
			-0.706099  0.625480  0.331962
			-0.255330  0.584404  0.770246
			 0.497281  0.359286  0.789699
			 0.834923 -0.163486  0.525525
			 0.875066  0.474475  0.095566
			 0.875103  0.474570 -0.094748
			 0.557329  0.744437  0.367692
			-0.373216  0.072692  0.924892
			 0.514086 -0.100665  0.851811
			 0.047324 -0.465229  0.883925
			-0.708692 -0.200944  0.676296
			-0.700217 -0.685732  0.198663
			 0.772844 -0.503065 -0.386830
			 0.803335 -0.577706  0.144598
			 0.655765 -0.563355  0.502597
			 0.191529 -0.504357  0.841986
			-0.580826 -0.414702  0.700474
			-0.908078 -0.308331  0.283419
			-0.989728  0.113634  0.086748
			-0.962408  0.258415 -0.083623
			 0.213128  0.857114  0.468970
			 0.903233 -0.103950  0.416372
			 0.906485  0.160752  0.390441
			-0.183549  0.967299  0.175052
			-0.177998  0.983931  0.014037
			-0.810558  0.579502  0.084697
			-0.754114  0.567473  0.330585
			-0.303264  0.562858  0.768909
			 0.465720  0.398555  0.790100
			 0.845606 -0.097235  0.524877
			 0.833343  0.544419  0.095643
			 0.833379  0.544502 -0.094851
			 0.492427  0.788737  0.367981
			-0.378150  0.043197  0.924736
			 0.520678 -0.060017  0.851641
			-0.491761 -0.513592 -0.703132
			 0.285695 -0.461830 -0.839697
			-0.331466 -0.868298 -0.369039
			-0.873748 -0.470523  0.123179
			-0.894193  0.424127 -0.143300
			-0.748712  0.436473 -0.498920
			-0.285309  0.462344 -0.839546
			 0.492088  0.513941 -0.702647
			 0.836813  0.467698 -0.284610
			 0.994222  0.063348 -0.086662
			 0.683582 -0.729537 -0.022152
			 0.798887  0.050738  0.599337
			-0.907580 -0.057706 -0.415895
			-0.811814 -0.582692  0.037780
			 0.456951 -0.523924  0.718818
			 0.872007  0.393773  0.290768
			 0.879132  0.471108 -0.071999
			 0.836813  0.467705 -0.284598
			 0.492085  0.513952 -0.702642
			-0.285324  0.462351 -0.839537
			-0.849731 -0.054115 -0.524432
			-0.986919 -0.062941 -0.148426
			-0.712797 -0.472761  0.518091
			 0.334218  0.021394  0.942253
			 0.380136  0.024530 -0.924605
			-0.523266 -0.033120 -0.851526
			 0.164202 -0.986427  0.000016
			-0.307715 -0.951479 -0.000012
			-0.616876  0.787061  0.000038
			-0.916871  0.399184  0.000231
			 0.230801 -0.973001 -0.000446
			 0.741629 -0.670810  0.000044
			 0.216606 -0.976259 -0.000100
			 0.834083 -0.551639 -0.000071
			 0.975874  0.218335 -0.000274
			-0.989182 -0.146696 -0.000157
			-0.740748  0.671783 -0.000236
			-0.986173 -0.165718 -0.000079
			-0.930515 -0.366254 -0.000020
			-0.050436  0.998727 -0.000000
			 0.774599 -0.632452  0.000327
			 0.606955 -0.772608  0.186235
			 0.592731 -0.644550  0.482934
			 0.320699 -0.593177  0.738439
			-0.190550 -0.981545 -0.016139
			-0.242399 -0.955411  0.168623
			-0.060501 -0.690034  0.721244
			-0.691185  0.625302  0.362298
			-0.798585  0.266519  0.539657
			 0.613295 -0.658256  0.436542
			 0.953679  0.073061  0.291818
			 0.998235 -0.059394  0.000213
			 0.926074  0.377342  0.000175
			 0.850575  0.397600  0.344146
			 0.998161  0.060620  0.000374
			 0.923583 -0.037299  0.381579
			 0.999701 -0.024445  0.000217
			 0.941338 -0.081162  0.327560
			 0.813286  0.581864  0.000185
			 0.667733  0.661161  0.342052
			 0.606455 -0.187583  0.772674
			 0.401738  0.746432  0.530515
			 0.575439 -0.200925  0.792779
			 0.567707  0.305322  0.764518
			 0.619613  0.255802  0.742054
			 0.207974  0.516276  0.830787
			 0.197100 -0.323520  0.925466
			 0.230791 -0.282605  0.931059
			 0.186390  0.191633  0.963606
			 0.202977  0.190714  0.960431
			-0.156434  0.449827  0.879309
			-0.073176 -0.220775  0.972576
			 0.024171 -0.299735  0.953716
			-0.148670  0.006162  0.988868
			-0.242482 -0.078052  0.967011
			-0.652918 -0.532824  0.538328
			-0.035858 -0.502201  0.864007
			 0.138622  0.022291  0.990094
			-0.199234  0.221636  0.954559
			 0.056157 -0.978956  0.196191
			-0.091054 -0.637964  0.764664
			 0.033621 -0.073337  0.996740
			-0.184277  0.687684  0.702234
			-0.219495  0.897904  0.381564
			-0.152427  0.924624  0.349051
			 0.053463  0.218568  0.974356
			-0.439180 -0.658948  0.610662
			 0.483117 -0.116830  0.867726
			 0.217251  0.633642  0.742496
			-0.975812  0.085934 -0.201014
			 0.103245  0.008550  0.994619
			-0.790612 -0.534377  0.298955
			-0.297414  0.949237 -0.102439
			 0.213178  0.673925  0.707375
			 0.450602  0.358482  0.817587
			 0.504759  0.265766  0.821333
			-0.114328 -0.575317  0.809901
			-0.214720 -0.638546  0.739022
			-0.486376 -0.366080  0.793362
			 0.326550 -0.650440  0.685779
			-0.852074  0.113542  0.510958
			-0.022879 -0.003318  0.999733
			-0.023887  0.225474  0.973956
			-0.891161  0.124905  0.436155
			-0.781089 -0.471194  0.409726
			-0.621655 -0.663037  0.417046
			-0.871333  0.447556  0.201177
			-0.933476  0.284790 -0.217984
			-0.905947  0.339348  0.253187
			-0.818172  0.094593  0.567138
			-0.659896  0.036466  0.750472
			 0.106901 -0.942216  0.317491
			 0.052384 -0.964287 -0.259627
			 0.557098 -0.779705  0.285834
			-0.894160  0.447747 -0.000855
			-0.766629  0.642089 -0.001403
			-0.835893  0.000835  0.548892
			-0.136908  0.212544  0.967513
			-0.015765 -0.046601  0.998789
			-0.227592 -0.691136  0.685954
			-0.528899 -0.848684 -0.000888
			-0.966105 -0.258147 -0.000964
			-0.945976  0.087974 -0.312075
			-0.814956  0.239378 -0.527773
			-0.487545  0.492694 -0.720800
			-0.670927 -0.674509 -0.308050
			-0.511851 -0.814353  0.273565
			-0.881028  0.330318 -0.338643
			-0.656034  0.042287 -0.753545
			 0.874965 -0.232998 -0.424439
			 0.096917 -0.916233 -0.388746
			 0.313106 -0.892467 -0.324756
			 0.650365  0.224659 -0.725641
			 0.876219 -0.163647  0.453278
			 0.924262  0.029058  0.380651
			-0.952075 -0.144183 -0.269749
			-0.583603  0.742549 -0.328676
			-0.951650 -0.147408 -0.269504
			-0.769029 -0.638085 -0.037973
			-0.848996 -0.486525 -0.206154
			-0.409368 -0.004019 -0.912360
			-0.241932 -0.018680 -0.970113
			-0.666000 -0.605421 -0.435786
			-0.716768  0.487407 -0.498676
			 0.607052 -0.772588 -0.186001
			 0.592728 -0.644555 -0.482931
			 0.320699 -0.593182 -0.738436
			-0.190549 -0.981545  0.016118
			-0.242392 -0.955413 -0.168620
			-0.060494 -0.690039 -0.721240
			-0.691106  0.625472 -0.362156
			-0.798662  0.266504 -0.539551
			 0.613290 -0.658253 -0.436553
			 0.953760  0.073136 -0.291535
			 0.850674  0.397659 -0.343834
			 0.923701 -0.037283 -0.381296
			 0.941396 -0.081144 -0.327398
			 0.667773  0.661192 -0.341913
			 0.606455 -0.187583 -0.772674
			 0.401732  0.746438 -0.530510
			 0.575439 -0.200925 -0.792779
			 0.567707  0.305322 -0.764518
			 0.619613  0.255802 -0.742054
			 0.207973  0.516280 -0.830784
			 0.197100 -0.323520 -0.925466
			 0.230791 -0.282605 -0.931059
			 0.186390  0.191633 -0.963606
			 0.202977  0.190714 -0.960431
			-0.156430  0.449834 -0.879306
			-0.073176 -0.220775 -0.972576
			 0.024171 -0.299735 -0.953716
			-0.148670  0.006162 -0.988868
			-0.242482 -0.078052 -0.967011
			-0.652918 -0.532824 -0.538328
			-0.035858 -0.502201 -0.864007
			 0.138622  0.022291 -0.990094
			-0.199234  0.221636 -0.954559
			 0.056157 -0.978956 -0.196191
			-0.091054 -0.637964 -0.764664
			 0.033621 -0.073337 -0.996740
			-0.184277  0.687684 -0.702234
			-0.219485  0.897910 -0.381556
			-0.152427  0.924624 -0.349051
			 0.053463  0.218568 -0.974356
			-0.439180 -0.658948 -0.610662
			 0.483117 -0.116830 -0.867726
			 0.217251  0.633642 -0.742496
			-0.975812  0.085934  0.201014
			 0.103245  0.008550 -0.994619
			-0.790612 -0.534377 -0.298955
			-0.297414  0.949237  0.102439
			 0.213178  0.673925 -0.707375
			 0.450602  0.358482 -0.817587
			 0.504759  0.265766 -0.821333
			-0.114328 -0.575317 -0.809901
			-0.214720 -0.638546 -0.739022
			-0.486376 -0.366080 -0.793362
			 0.326550 -0.650440 -0.685779
			-0.852074  0.113542 -0.510958
			-0.022879 -0.003318 -0.999733
			-0.023887  0.225474 -0.973956
			-0.891161  0.124905 -0.436155
			-0.781089 -0.471194 -0.409726
			-0.621655 -0.663037 -0.417046
			-0.871286  0.447717 -0.201022
			-0.933460  0.284788  0.218057
			-0.905947  0.339348 -0.253187
			-0.817847  0.095242 -0.567500
			-0.658781  0.036145 -0.751466
			 0.106901 -0.942216 -0.317491
			 0.052384 -0.964287  0.259627
			 0.557098 -0.779705 -0.285834
			-0.834888  0.000508 -0.550420
			-0.136123  0.211761 -0.967795
			-0.015765 -0.046601 -0.998789
			-0.226884 -0.690809 -0.686518
			-0.945976  0.087974  0.312075
			-0.814956  0.239378  0.527773
			-0.487470  0.492740  0.720820
			-0.670927 -0.674509  0.308050
			-0.511851 -0.814353 -0.273565
			-0.881028  0.330318  0.338643
			-0.656034  0.042287  0.753545
			 0.874989 -0.233098  0.424335
			 0.097033 -0.916238  0.388707
			 0.313082 -0.892513  0.324653
			 0.650528  0.224755  0.725464
			 0.876219 -0.163647 -0.453278
			 0.924262  0.029058 -0.380651
			-0.952098 -0.144209  0.269653
			-0.583660  0.742565  0.328538
			-0.951658 -0.147418  0.269470
			-0.769029 -0.638085  0.037969
			-0.848996 -0.486525  0.206154
			-0.409368 -0.004019  0.912360
			-0.241932 -0.018680  0.970113
			-0.666000 -0.605421  0.435786
			-0.716768  0.487407  0.498676
			 0.807384 -0.590026  0.000357
			 0.650168 -0.734207  0.195506
			 0.233225 -0.972423  0.000015
			 0.617010 -0.606513  0.501440
			 0.345358 -0.569537  0.745893
			-0.331739 -0.943233 -0.016147
			-0.357412 -0.933947  0.000048
			-0.294718 -0.945752  0.136729
			-0.003893 -0.691536  0.722331
			-0.926250  0.376910  0.000248
			-0.718253  0.560286  0.412543
			-0.595518  0.803342  0.000036
			-0.800396  0.261232  0.539558
			 0.685894 -0.727701  0.000033
			 0.617796 -0.654107  0.436432
			 0.237668 -0.971346 -0.000439
			 0.937694  0.146090  0.315258
			 0.999924  0.012348  0.000249
			 0.884452  0.466631  0.000187
			 0.801946  0.471842  0.366399
			 0.993847  0.110761  0.000381
			 0.920747 -0.011733  0.389983
			 0.999982  0.005928  0.000214
			 0.943437 -0.052378  0.327388
			 0.794809  0.606860  0.000182
			 0.646473  0.681727  0.342522
			 0.612236 -0.168925  0.772419
			 0.377145  0.758761  0.531078
			 0.575903 -0.209124  0.790318
			 0.520544  0.328857  0.787964
			 0.563358  0.308037  0.766643
			 0.190764  0.522341  0.831125
			 0.207748 -0.317264  0.925302
			 0.242534 -0.289894  0.925818
			 0.170323  0.167957  0.970969
			 0.169698  0.205478  0.963837
			-0.171260  0.444654  0.879177
			-0.065866 -0.222778  0.972642
			 0.034106 -0.298720  0.953731
			-0.166897  0.049659  0.984723
			-0.251724 -0.049190  0.966548
			-0.780151 -0.455180  0.429157
			-0.023837 -0.463106  0.885982
			 0.137792  0.026649  0.990103
			-0.206459  0.215348  0.954463
			-0.085076 -0.974182  0.209123
			-0.070128 -0.640479  0.764767
			 0.050549 -0.032296  0.998199
			 0.005920  0.710074  0.704102
			-0.249066  0.890202  0.381452
			 0.065173  0.935687  0.346761
			 0.131715  0.283842  0.949782
			-0.514842 -0.583770  0.627813
			 0.310821 -0.107977  0.944315
			 0.300704  0.626495  0.719083
			-0.976380  0.079680 -0.200829
			 0.103173  0.009286  0.994620
			-0.786976 -0.539556  0.299245
			-0.116204  0.983957 -0.135371
			 0.409971  0.652715  0.637093
			 0.413232  0.395317  0.820343
			 0.495877  0.301262  0.814461
			-0.231981 -0.487723  0.841612
			-0.358601 -0.593486  0.720541
			-0.480360 -0.455290  0.749644
			 0.275306 -0.594094  0.755817
			-0.852924  0.105203  0.511325
			-0.086866  0.020629  0.996006
			-0.293149  0.288670  0.911446
			-0.891959  0.118903  0.436201
			-0.777841 -0.476412  0.409871
			-0.741548 -0.567992  0.357059
			-0.892262  0.395158  0.218445
			-0.902842  0.366064 -0.225550
			-0.912725  0.327561  0.244208
			-0.818795  0.089227  0.567110
			-0.660054  0.032088  0.750533
			-0.077472 -0.907977  0.411797
			-0.281173 -0.952639 -0.115845
			 0.234559 -0.908229  0.346557
			-0.897113  0.441800 -0.000840
			-0.770984  0.636853 -0.001379
			-0.835885 -0.004760  0.548884
			-0.138370  0.211589  0.967514
			-0.015161 -0.046812  0.998789
			-0.222708 -0.692634  0.686047
			-0.523025 -0.852317 -0.000874
			-0.964342 -0.264658 -0.000948