<?xml version="1.0"?>
<VTKFile type="PolyData" version="0.1" byte_order="LittleEndian" compressor="vtkZLibDataCompressor">
	<PolyData>
		<Piece NumberOfPoints="183" NumberOfVerts="0" NumberOfLines="0" NumberOfStrips="0" NumberOfPolys="369">
		<PointData Normals="Normals">
		<DataArray type="Float32" Name="Normals" NumberOfComponents="3" format="ascii">
			-0.071684  0.315699  0.946148
			-0.085657 -0.680446  0.727775
			 0.601015 -0.480339  0.638792
			-0.605597 -0.511264  0.609804
			 0.873195  0.389497  0.292955
			-0.172304  0.486132  0.856730
			 0.910918  0.231685  0.341394
			-0.786691  0.115549  0.606437
			 0.270349 -0.962528  0.021244
			 0.827191 -0.507645 -0.240938
			-0.922397  0.015121  0.385947
			 0.007211 -0.687796  0.725868
			 0.884271  0.019161 -0.466580
			 0.925590  0.075881 -0.370845
			 0.981794 -0.032517 -0.187142
			 0.827754  0.274831  0.489174
			-0.800547  0.262470  0.538734
			-0.307215  0.375218  0.874546
			 0.554033 -0.390208 -0.735381
			 0.448868 -0.777386 -0.440668
			 0.758387 -0.544819  0.357800
			-0.940780  0.161338  0.298166
			-0.973758  0.036070 -0.224708
			-0.093171 -0.654370  0.750412
			-0.998429 -0.048624 -0.027847
			 0.760317 -0.087763 -0.643596
			 0.747073 -0.239355 -0.620154
			 0.996120 -0.068828 -0.054848
			 0.882187 -0.221342 -0.415637
			 0.747769  0.189117  0.636456
			-0.960595  0.137888  0.241340
			 0.246319  0.305242  0.919866
			-0.381544  0.323812  0.865777
			 0.005121 -0.427283 -0.904104
			 0.315235 -0.239337 -0.918338
			 0.736582 -0.674195 -0.053929
			-0.370124 -0.711294 -0.597553
			-0.595341 -0.120244 -0.794424
			-0.909588 -0.048678 -0.412649
			-0.725451 -0.180454 -0.664197
			-0.252036 -0.268549 -0.929709
			 0.451072 -0.313764 -0.835515
			-0.144469 -0.276526 -0.950085
			 0.785892 -0.195716 -0.586574
			 0.993661  0.001038  0.112413
			 0.494122  0.244323  0.834356
			-0.974480  0.105286  0.198252
			-0.404982  0.274460  0.872159
			-0.389704 -0.193660 -0.900348
			-0.844491 -0.119899 -0.521977
			-0.760073 -0.184614 -0.623062
			-0.562959 -0.213384 -0.798464
			-0.007826 -0.258623 -0.965946
			 0.598377 -0.201307 -0.775513
			 0.999184 -0.008195  0.039541
			 0.622100  0.150471  0.768342
			 0.058787  0.217371  0.974317
			-0.980229  0.062466  0.187747
			-0.411575  0.206499  0.887673
			-0.990969 -0.000550  0.134091
			-0.111240 -0.224927 -0.968005
			-0.998903 -0.028130  0.037425
			-0.549154 -0.188395 -0.814209
			 0.628136 -0.164959 -0.760417
			 0.994564 -0.017255 -0.102687
			 0.774688  0.102932  0.623910
			 0.116316  0.182973  0.976213
			-0.442829  0.175092  0.879344
			-0.198800 -0.204583 -0.958449
			-0.488886  0.143269  0.860502
			-0.997576 -0.040634  0.056495
			-0.665681 -0.171483 -0.726266
			 0.611334 -0.128079 -0.780939
			 0.984414 -0.011246 -0.175508
			 0.832909  0.092596  0.545609
			-0.003040  0.163501  0.986538
			-0.730168 -0.183371 -0.658202
			-0.168777 -0.202228 -0.964686
			-0.490539  0.118032  0.863389
			-0.964496 -0.034801  0.261794
			 0.628160 -0.130053 -0.767139
			 0.966482 -0.010197 -0.256533
			 0.658878  0.161546  0.734699
			-0.088188  0.152668  0.984335
			-0.781550 -0.192477 -0.593407
			-0.989424 -0.060348  0.131905
			-0.196641 -0.245001 -0.949372
			-0.549659  0.105612  0.828687
			-0.274485  0.137210  0.951752
			-0.649504  0.073792  0.756769
			 0.609852 -0.191963 -0.768915
			 0.998354  0.030514 -0.048570
			 0.434904  0.209125  0.875857
			-0.788682 -0.212112 -0.577052
			-0.984016 -0.025574  0.176235
			-0.629519  0.121927  0.767359
			-0.170620 -0.288507 -0.942153
			-0.209661  0.185329  0.960050
			-0.539924  0.151382  0.827989
			 0.590347 -0.268061 -0.761337
			 0.759044  0.139554  0.635906
			 0.996133 -0.083698 -0.026714
			-0.783742 -0.230634 -0.576677
			-0.993021 -0.008817  0.117606
			-0.691260  0.173143  0.701556
			-0.514017  0.205932  0.832693
			-0.164890 -0.323103 -0.931888
			 0.422148  0.148733  0.894242
			-0.225318  0.195681  0.954432
			 0.645465 -0.361522 -0.672813
			 0.960686 -0.118614  0.251022
			-0.714169 -0.246839 -0.655006
			-0.955344  0.060760  0.289182
			-0.541028  0.253057  0.802030
			-0.528793  0.290990  0.797310
			-0.132663 -0.337064 -0.932088
			 0.453646  0.064672  0.888832
			-0.116893  0.287050  0.950757
			 0.896346 -0.443334 -0.004388
			 0.334179 -0.506383 -0.794922
			 0.759082 -0.087019  0.645152
			-0.626220 -0.280473 -0.727450
			-0.990516  0.020923  0.135795
			-0.651087  0.139734  0.746030
			-0.392847  0.278325  0.876474
			-0.286149 -0.476512 -0.831297
			 0.158478  0.238597  0.958100
			 0.718470 -0.432648  0.544625
			-0.000285  0.409012  0.912529
			 0.139667 -0.793742 -0.592003
			 0.701882 -0.706808 -0.088230
			 0.789630 -0.551096  0.269775
			 0.858810 -0.471068  0.201349
			-0.674257 -0.151748 -0.722738
			-0.991680  0.074411  0.105040
			-0.590222  0.143720  0.794344
			-0.401202 -0.475573 -0.782858
			 0.113701  0.472132  0.874165
			 0.371819 -0.334269  0.866034
			 0.645963  0.012456  0.763267
			 0.226105  0.784952  0.576825
			-0.253369  0.077069  0.964295
			 0.648203  0.165948  0.743165
			 0.847797  0.520926  0.099381
			-0.020562 -0.643274 -0.765360
			 0.959853  0.134438 -0.246188
			 0.620657 -0.457036 -0.637105
			 0.890039  0.309359  0.334854
			-0.140834 -0.132164 -0.981172
			-0.907838  0.186693 -0.375467
			-0.727386  0.554327 -0.404514
			-0.597349  0.544825 -0.588507
			-0.356141  0.450278 -0.818788
			-0.896667  0.441852 -0.027490
			-0.801992  0.536060  0.263531
			-0.702367  0.466835  0.537351
			 0.655688 -0.159930 -0.737900
			 0.555627  0.250017 -0.792950
			 0.138156  0.388866 -0.910877
			 0.419320  0.841875 -0.339732
			-0.478767  0.569907  0.667823
			 0.149653  0.293170  0.944275
			 0.942329  0.133310  0.306993
			 0.744231 -0.244573  0.621534
			 0.994521 -0.097239  0.038368
			 0.938334  0.274908 -0.209652
			 0.634911  0.003737 -0.772577
			-0.537050  0.776957 -0.328505
			-0.758025  0.650300 -0.050085
			-0.618635  0.780603 -0.089162
			-0.485708  0.808720 -0.331752
			-0.313122  0.868171 -0.385011
			 0.536942  0.546604 -0.642587
			-0.660003  0.744718  0.098954
			-0.422651  0.901562  0.092484
			 0.115401  0.705260  0.699493
			 0.710914  0.551469  0.436444
			 0.859774 -0.463701  0.213939
			 0.929634 -0.277277 -0.242689
			-0.494527  0.849828 -0.182306
			-0.043315  0.986197 -0.159808
			 0.871994  0.459717 -0.168186
			-0.077086  0.994797 -0.066604
		</DataArray>
	</PointData>
	<Points>
		<DataArray type="Float32" NumberOfComponents="3" format="ascii">
			-0.019323 -0.217102  0.070218
			-0.018195 -0.223987  0.071675
			-0.013307 -0.224252  0.068636
			-0.022464 -0.224789  0.066605
			-0.014639 -0.211528  0.063885
			-0.019851 -0.210096  0.065549
			-0.011942 -0.217183  0.066743
			-0.024298 -0.219528  0.065922
			-0.017854 -0.226525  0.057714
			-0.012110 -0.225062  0.062259
			-0.025703 -0.221007  0.062747
			-0.023571 -0.225675  0.064553
			-0.012752 -0.222432  0.059672
			-0.014921 -0.214098  0.057838
			-0.015849 -0.206458  0.055355
			-0.015648 -0.203830  0.059815
			-0.023520 -0.211046  0.062592
			-0.021449 -0.200212  0.060076
			-0.016718 -0.224274  0.056529
			-0.020874 -0.227649  0.056935
			-0.022570 -0.227551  0.059024
			-0.025384 -0.212883  0.060070
			-0.025450 -0.216812  0.055206
			-0.023787 -0.230688  0.064475
			-0.026706 -0.223675  0.057905
			-0.016782 -0.216036  0.055400
			-0.015833 -0.195591  0.047333
			-0.015665 -0.194516  0.050501
			-0.016457 -0.207698  0.053541
			-0.015416 -0.192949  0.055805
			-0.025118 -0.204724  0.056592
			-0.019391 -0.192444  0.056897
			-0.021160 -0.191427  0.056939
			-0.022140 -0.225076  0.054096
			-0.021043 -0.217273  0.052224
			-0.022919 -0.229879  0.058296
			-0.025570 -0.230977  0.058789
			-0.024333 -0.216943  0.053360
			-0.024783 -0.207280  0.052908
			-0.025428 -0.224746  0.055232
			-0.020819 -0.195561  0.046633
			-0.018048 -0.209122  0.051169
			-0.020139 -0.177888  0.041409
			-0.014695 -0.177375  0.042346
			-0.013741 -0.176294  0.046749
			-0.015815 -0.174933  0.050239
			-0.024677 -0.192770  0.051726
			-0.020815 -0.174824  0.050969
			-0.022325 -0.208545  0.050763
			-0.024087 -0.194989  0.049028
			-0.023024 -0.177460  0.043125
			-0.022744 -0.155038  0.035840
			-0.019507 -0.155571  0.034994
			-0.014600 -0.156538  0.036122
			-0.014004 -0.154331  0.041012
			-0.014505 -0.150932  0.044393
			-0.016267 -0.151491  0.044374
			-0.024305 -0.175716  0.046407
			-0.020033 -0.151517  0.044561
			-0.025334 -0.152468  0.039056
			-0.019540 -0.125165  0.027884
			-0.026428 -0.121415  0.031509
			-0.023338 -0.123810  0.028975
			-0.015035 -0.126238  0.028435
			-0.012668 -0.126096  0.034854
			-0.013962 -0.124233  0.038831
			-0.016707 -0.123077  0.039415
			-0.019549 -0.119232  0.038413
			-0.020549 -0.110859  0.024837
			-0.019762 -0.106891  0.035818
			-0.027126 -0.108141  0.029447
			-0.023876 -0.110483  0.026215
			-0.015768 -0.111184  0.025292
			-0.013166 -0.111293  0.031808
			-0.012719 -0.108674  0.035485
			-0.016713 -0.107696  0.036439
			-0.025826 -0.094948  0.024046
			-0.021030 -0.095815  0.021745
			-0.021281 -0.091599  0.032682
			-0.027585 -0.092795  0.027298
			-0.016352 -0.096042  0.022684
			-0.014122 -0.094230  0.028478
			-0.013185 -0.091663  0.033629
			-0.016924 -0.091793  0.034372
			-0.027888 -0.076995  0.021110
			-0.028866 -0.075906  0.024205
			-0.022194 -0.078789  0.018126
			-0.022270 -0.077985  0.030016
			-0.019655 -0.079219  0.031837
			-0.027207 -0.076072  0.027058
			-0.016941 -0.079607  0.018769
			-0.015006 -0.077975  0.024161
			-0.016862 -0.078512  0.032281
			-0.028876 -0.060416  0.016578
			-0.030388 -0.058701  0.021288
			-0.028224 -0.058874  0.024120
			-0.021813 -0.061071  0.013094
			-0.020435 -0.060497  0.028695
			-0.022799 -0.060051  0.026837
			-0.016535 -0.061392  0.013642
			-0.017692 -0.060310  0.028253
			-0.014588 -0.060708  0.019563
			-0.030295 -0.041855  0.010252
			-0.031283 -0.038230  0.016065
			-0.029359 -0.039054  0.019367
			-0.023168 -0.040474  0.022119
			-0.022131 -0.043644  0.007731
			-0.018035 -0.041940  0.023882
			-0.021036 -0.040777  0.024475
			-0.014944 -0.045435  0.007642
			-0.012886 -0.043458  0.015696
			-0.029957 -0.028176  0.004200
			-0.031588 -0.024563  0.011778
			-0.029423 -0.024652  0.014854
			-0.022158 -0.025322  0.019164
			-0.020517 -0.030261  0.003026
			-0.015264 -0.026230  0.020943
			-0.018520 -0.025387  0.021377
			-0.009666 -0.028245  0.006582
			-0.011376 -0.031680  0.002159
			-0.008772 -0.028272  0.014419
			-0.028560 -0.015086 -0.002058
			-0.032097 -0.011087  0.008604
			-0.029965 -0.011390  0.010960
			-0.020722 -0.013925  0.014155
			-0.017545 -0.016467 -0.002035
			-0.013939 -0.018569  0.018359
			-0.005800 -0.021344  0.014589
			-0.018792 -0.007834  0.013317
			-0.008416 -0.026400 -0.001432
			-0.004258 -0.021995 -0.000480
			-0.002832 -0.018481  0.003630
			-0.003659 -0.018447  0.007339
			-0.026992 -0.004453 -0.007793
			-0.032299 -0.001677  0.005834
			-0.030061 -0.002144  0.010327
			-0.018000 -0.013202 -0.005114
			-0.014135 -0.011858  0.015331
			-0.006943 -0.019291  0.017189
			-0.002805 -0.014890  0.014906
			-0.008187 -0.010967  0.013473
			-0.023957  0.002440  0.012096
			-0.021934  0.002845  0.012407
			-0.016653 -0.005496  0.005962
			-0.010381 -0.020811 -0.007359
			 0.001611 -0.014274  0.002444
			-0.002994 -0.020495 -0.004453
			 0.000491 -0.008615  0.011055
			-0.022578 -0.001861 -0.010858
			-0.030932  0.004074 -0.001441
			-0.027794  0.006875 -0.003729
			-0.025906  0.006423 -0.006310
			-0.023021  0.005895 -0.009184
			-0.031531  0.004200  0.001692
			-0.029098  0.006705  0.005569
			-0.027837  0.005818  0.010493
			-0.017850 -0.002390 -0.010117
			-0.016576 -0.011866 -0.005889
			-0.010707 -0.017161 -0.008415
			-0.011234 -0.015317 -0.000268
			-0.024314  0.009960  0.010942
			-0.022542  0.010670  0.011435
			-0.018725 -0.000721  0.005435
			-0.018438  0.004721  0.006964
			-0.016402 -0.001571 -0.002958
			-0.015401 -0.009998 -0.001343
			-0.017860  0.001701 -0.010144
			-0.026686  0.008868 -0.001489
			-0.029778  0.006910  0.001861
			-0.027563  0.008853  0.001183
			-0.022747  0.010612 -0.002976
			-0.018548  0.012909 -0.004380
			-0.013843  0.011413 -0.006258
			-0.025413  0.010585  0.004247
			-0.022245  0.013198  0.007521
			-0.019404  0.013395  0.008896
			-0.011546  0.012384  0.004888
			-0.015207  0.001855  0.000570
			-0.015965  0.001051 -0.003925
			-0.023277  0.011166  0.001609
			-0.018334  0.013715  0.000094
			-0.011296  0.011613 -0.000403
			-0.019196  0.014079  0.003180
		</DataArray>
	</Points>
			<Polys>
				<DataArray type="Int32" Name="connectivity" format="ascii">
					0 1 2
					3 1 0
					4 5 0
					0 2 6
					3 0 7
					5 7 0
					4 0 6
					8 2 1
					8 1 3
					8 9 2
					9 6 2
					10 11 3
					10 3 7
					8 3 11
					12 13 4
					14 15 4
					15 5 4
					12 4 6
					14 4 13
					5 16 7
					17 16 5
					15 17 5
					9 12 6
					16 10 7
					18 8 19
					19 8 20
					18 9 8
					8 11 20
					18 12 9
					16 21 10
					10 21 22
					23 11 10
					10 22 24
					23 10 24
					23 20 11
					25 13 12
					25 12 18
					25 14 13
					26 27 14
					25 28 14
					27 15 14
					26 14 28
					27 29 15
					29 17 15
					17 21 16
					17 16 21
					17 21 16
					17 30 21
					31 32 17
					29 31 17
					32 30 17
					18 33 34
					18 19 33
					18 34 25
					19 35 36
					19 20 35
					19 36 33
					23 35 20
					30 22 21
					37 22 38
					39 24 22
					30 38 22
					39 22 37
					36 35 23
					23 24 36
					39 36 24
					28 25 34
					40 26 41
					28 41 26
					42 43 26
					43 27 26
					42 26 40
					43 44 27
					44 29 27
					28 34 41
					45 31 29
					44 45 29
					32 46 30
					46 38 30
					45 32 31
					45 47 32
					47 46 32
					33 36 39
					37 34 33
					37 33 39
					48 41 34
					48 34 37
					37 38 48
					48 38 49
					46 49 38
					40 49 50
					40 41 48
					40 50 42
					48 49 40
					42 50 51
					52 43 42
					42 51 52
					52 53 43
					54 44 43
					54 43 53
					54 45 44
					55 56 45
					54 55 45
					56 47 45
					47 57 46
					57 49 46
					56 58 47
					58 57 47
					57 50 49
					50 57 59
					50 59 51
					60 52 51
					51 59 61
					60 51 62
					51 61 62
					60 53 52
					60 63 53
					63 54 53
					63 64 54
					54 64 65
					54 65 55
					65 56 55
					65 66 56
					66 58 56
					58 59 57
					66 67 58
					59 58 67
					59 67 61
					68 63 60
					62 68 60
					69 70 61
					62 61 70
					69 61 67
					62 71 68
					62 70 71
					68 72 63
					72 64 63
					72 73 64
					65 64 73
					66 65 74
					65 73 74
					75 67 66
					66 74 75
					75 69 67
					68 71 76
					77 72 68
					68 76 77
					78 70 69
					75 78 69
					78 79 70
					71 70 79
					71 79 76
					77 80 72
					80 73 72
					80 81 73
					74 73 81
					75 74 82
					74 81 82
					75 83 78
					75 82 83
					77 76 84
					76 79 85
					76 85 84
					86 80 77
					77 84 86
					79 78 87
					88 87 78
					88 78 83
					89 85 79
					79 87 89
					86 90 80
					81 80 90
					82 81 91
					81 90 91
					82 92 88
					82 88 83
					82 91 92
					86 84 93
					84 85 94
					84 94 93
					95 94 85
					95 85 89
					90 86 96
					86 93 96
					97 98 87
					89 87 98
					97 87 88
					97 88 92
					89 98 95
					91 90 99
					90 96 99
					100 92 91
					100 91 101
					91 99 101
					97 92 100
					96 93 102
					93 94 103
					93 103 102
					104 103 94
					104 94 95
					95 98 105
					95 105 104
					106 99 96
					96 102 106
					107 108 97
					108 98 97
					107 97 100
					108 105 98
					101 99 109
					106 109 99
					100 101 110
					100 110 107
					101 109 110
					106 102 111
					102 103 112
					102 112 111
					104 112 103
					113 104 105
					104 113 112
					114 105 108
					113 105 114
					115 109 106
					106 111 115
					116 107 110
					117 108 107
					108 107 116
					117 107 116
					114 108 117
					108 116 117
					110 109 118
					119 118 109
					115 119 109
					116 110 120
					110 118 120
					115 111 121
					111 112 122
					111 122 121
					123 122 112
					123 112 113
					113 114 124
					113 124 123
					124 114 117
					125 119 115
					115 121 125
					117 116 126
					116 120 127
					116 127 126
					117 126 128
					124 117 128
					127 120 118
					118 119 129
					118 130 131
					118 131 132
					127 118 132
					118 129 130
					132 120 118
					125 129 119
					132 127 120
					125 121 133
					121 122 134
					121 134 133
					123 134 122
					123 135 134
					124 135 123
					124 128 135
					136 129 125
					125 133 136
					137 128 126
					126 138 139
					127 138 126
					126 139 140
					126 140 137
					139 138 127
					132 139 127
					141 135 128
					142 141 128
					140 143 128
					143 142 128
					140 128 137
					136 144 129
					130 129 144
					145 131 130
					145 130 146
					144 146 130
					131 145 147
					131 147 132
					132 147 139
					133 148 136
					133 149 150
					133 151 152
					134 149 133
					133 150 151
					133 152 148
					153 134 154
					154 134 135
					134 153 149
					155 135 141
					154 135 155
					156 157 136
					136 157 158
					156 136 148
					136 158 144
					140 139 147
					140 147 159
					159 143 140
					141 160 155
					161 160 141
					161 141 142
					143 162 142
					163 161 142
					163 142 162
					164 162 143
					159 165 143
					164 143 165
					144 158 146
					159 147 145
					145 146 158
					145 158 159
					148 152 166
					148 166 156
					150 149 153
					167 151 150
					150 153 168
					150 168 169
					150 169 167
					167 170 151
					152 151 170
					152 171 172
					152 170 171
					152 172 166
					153 154 168
					169 168 154
					169 154 173
					155 173 154
					155 160 174
					155 174 173
					164 156 166
					165 157 156
					165 156 164
					159 158 157
					159 157 165
					160 161 175
					160 175 174
					175 161 163
					164 163 162
					175 163 176
					177 176 163
					164 177 163
					164 178 177
					164 166 178
					178 166 172
					169 170 167
					169 179 170
					169 179 173
					169 173 179
					171 170 179
					172 171 180
					171 179 180
					172 180 181
					178 172 181
					174 179 173
					174 182 179
					174 175 176
					174 176 182
					181 182 176
					177 181 176
					177 178 181
					180 179 182
					181 180 182
				</DataArray>
				<DataArray type="Int32" Name="offsets" format="ascii">
					3 6 9 12 15 18 21 24 27 30 33 36 39 42 45 48 51 54 57 60 63 66 69 72 75 78 81 84 87 90 93 96 99 102 105 108 111 114 117 120 123 126 129 132 135 138 141 144 147 150 153 156 159 162 165 168 171 174 177 180 183 186 189 192 195 198 201 204 207 210 213 216 219 222 225 228 231 234 237 240 243 246 249 252 255 258 261 264 267 270 273 276 279 282 285 288 291 294 297 300 303 306 309 312 315 318 321 324 327 330 333 336 339 342 345 348 351 354 357 360 363 366 369 372 375 378 381 384 387 390 393 396 399 402 405 408 411 414 417 420 423 426 429 432 435 438 441 444 447 450 453 456 459 462 465 468 471 474 477 480 483 486 489 492 495 498 501 504 507 510 513 516 519 522 525 528 531 534 537 540 543 546 549 552 555 558 561 564 567 570 573 576 579 582 585 588 591 594 597 600 603 606 609 612 615 618 621 624 627 630 633 636 639 642 645 648 651 654 657 660 663 666 669 672 675 678 681 684 687 690 693 696 699 702 705 708 711 714 717 720 723 726 729 732 735 738 741 744 747 750 753 756 759 762 765 768 771 774 777 780 783 786 789 792 795 798 801 804 807 810 813 816 819 822 825 828 831 834 837 840 843 846 849 852 855 858 861 864 867 870 873 876 879 882 885 888 891 894 897 900 903 906 909 912 915 918 921 924 927 930 933 936 939 942 945 948 951 954 957 960 963 966 969 972 975 978 981 984 987 990 993 996 999 1002 1005 1008 1011 1014 1017 1020 1023 1026 1029 1032 1035 1038 1041 1044 1047 1050 1053 1056 1059 1062 1065 1068 1071 1074 1077 1080 1083 1086 1089 1092 1095 1098 1101 1104 1107
				</DataArray>
			</Polys>
		</Piece>
	</PolyData>
</VTKFile>
