<?xml version="1.0"?>
<VTKFile type="PolyData" version="0.1" byte_order="LittleEndian" compressor="vtkZLibDataCompressor">
	<PolyData>
		<Piece NumberOfPoints="142" NumberOfVerts="0" NumberOfLines="0" NumberOfStrips="0" NumberOfPolys="280">
		<PointData Normals="Normals">
		<DataArray type="Float32" Name="Normals" NumberOfComponents="3" format="ascii">
			-0.077500 -0.996758 -0.021608
			-0.171434 -0.929330  0.327043
			-0.010579 -0.891624  0.452653
			 0.101152 -0.950188  0.294807
			 0.161538 -0.986807 -0.010863
			-0.144367 -0.984819 -0.096385
			-0.146668 -0.896852 -0.417308
			 0.201421 -0.955838 -0.214015
			 0.009776 -0.789459  0.613725
			-0.235805 -0.812470  0.533187
			-0.061599 -0.809690  0.583616
			 0.778574 -0.625633  0.049047
			 0.876038 -0.190938  0.442831
			 0.321570 -0.725720  0.608214
			-0.115147 -0.981156  0.155159
			-0.212007 -0.748961 -0.627782
			-0.217934 -0.897324 -0.383815
			-0.082681 -0.808048 -0.583286
			 0.436658 -0.635284 -0.636980
			-0.269368 -0.739530 -0.616877
			-0.432256 -0.735604 -0.521576
			 0.880988 -0.336027 -0.333085
			 0.744161 -0.181850 -0.642771
			 0.531191 -0.339677  0.776180
			 0.368375  0.158604  0.916048
			 0.299120 -0.716821  0.629837
			-0.010074  0.118983  0.992845
			-0.334119 -0.662444  0.670471
			-0.144531 -0.770535  0.620795
			-0.406633 -0.508089  0.759273
			 0.312493 -0.430397  0.846821
			 0.042933  0.297473  0.953764
			 0.785166  0.603870 -0.137314
			 0.641631 -0.366235  0.673930
			 0.620876  0.749245  0.230532
			 0.333785 -0.850519  0.406455
			-0.025464 -0.999666  0.004365
			-0.139809 -0.960869 -0.239131
			-0.391700 -0.668886 -0.631793
			-0.112160 -0.673480 -0.730647
			-0.054456 -0.497731 -0.865620
			-0.051030 -0.472142 -0.880044
			 0.040911 -0.362438 -0.931110
			 0.410021 -0.278568 -0.868494
			 0.669921  0.620970 -0.406942
			 0.752573  0.313656 -0.579011
			-0.456565 -0.794217 -0.400958
			-0.151159 -0.253386 -0.955482
			 0.305656  0.639283  0.705614
			 0.414404  0.838119  0.354718
			-0.643800  0.233582  0.728671
			 0.248058  0.889346  0.384097
			-0.300278  0.899840  0.316420
			-0.499810 -0.475724  0.723793
			-0.541624  0.727733  0.420771
			 0.449768 -0.458806  0.766293
			 0.615626  0.001551  0.788037
			 0.530991  0.711310  0.460528
			 0.047782  0.921071  0.386452
			 0.381952  0.710577 -0.590925
			 0.152894  0.985475 -0.073915
			 0.572915 -0.311759  0.758007
			 0.495360 -0.596878  0.631153
			 0.186080 -0.827319  0.530017
			-0.065656 -0.975028  0.212153
			-0.356422 -0.913561  0.195881
			-0.964059 -0.260848  0.050478
			-0.125679 -0.781445 -0.611186
			-0.036447 -0.776111 -0.629542
			-0.914269 -0.263316 -0.307857
			-0.876279 -0.291525 -0.383599
			-0.491846  0.364508 -0.790709
			-0.955742 -0.293566  0.019423
			-0.018360  0.026912 -0.999469
			 0.044855 -0.313740 -0.948449
			 0.181692  0.506337 -0.842978
			 0.225166  0.279331 -0.933421
			 0.009167  0.349723 -0.936808
			-0.794712 -0.243917 -0.555822
			-0.222343  0.974198  0.038739
			 0.588258  0.392320  0.707133
			 0.514251  0.813142 -0.272663
			 0.545934  0.833383  0.086191
			 0.356842  0.847322  0.393331
			 0.109064  0.990609 -0.082460
			-0.375693  0.926582  0.017348
			-0.296821  0.951247 -0.083822
			 0.169019  0.219452  0.960871
			 0.201883 -0.371987  0.906018
			-0.243234 -0.593341  0.767322
			-0.447720 -0.697213  0.559859
			-0.810388 -0.363708  0.459334
			-0.935595  0.173435  0.307541
			-0.868613 -0.024583  0.494880
			-0.754865  0.653875  0.051242
			-0.738651  0.661236 -0.131002
			-0.815195  0.577138  0.048668
			-0.757870 -0.461361 -0.461280
			 0.067841 -0.374708 -0.924658
			-0.838352 -0.326981 -0.436175
			-0.949857  0.312552  0.009107
			-0.023936  0.799469 -0.600230
			 0.401581  0.406636 -0.820598
			 0.464153  0.261069 -0.846407
			 0.355938  0.750123 -0.557336
			 0.047940  0.702632  0.709937
			 0.391060  0.868084 -0.305780
			 0.213031  0.977029  0.005666
			 0.108512  0.987155  0.117261
			-0.704005  0.652770  0.279764
			-0.321425  0.097423  0.941910
			-0.798808  0.311342  0.514754
			-0.537967 -0.132214  0.832533
			-0.921612 -0.013774  0.387867
			-0.889241  0.441871  0.118324
			-0.889022  0.452814  0.067815
			-0.966961  0.240703  0.083955
			-0.904825  0.359434  0.228251
			-0.732420 -0.086420 -0.675347
			-0.990534  0.134887  0.025442
			-0.952957  0.032849  0.301321
			-0.056759  0.112868 -0.991988
			 0.249770  0.114535 -0.961507
			 0.420626  0.485804 -0.766204
			-0.616549  0.572300  0.540685
			 0.050378  0.626207 -0.778028
			-0.323130  0.935479 -0.143063
			-0.293414  0.952631  0.080015
			-0.274242  0.954438  0.117640
			-0.957230  0.235151  0.168564
			-0.999896 -0.005849  0.013165
			-0.964553  0.030716  0.262095
			-0.980523 -0.169652  0.098954
			-0.931785  0.231111  0.279936
			-0.950637 -0.289928  0.110597
			-0.994878  0.100212 -0.013271
			-0.699496  0.591447 -0.401118
			-0.903013  0.407674  0.135532
			-0.950773 -0.203599  0.233618
			-0.290216  0.727064 -0.622216
			-0.458342  0.846525 -0.270775
			-0.973583  0.187694  0.130027
		</DataArray>
	</PointData>
	<Points>
		<DataArray type="Float32" NumberOfComponents="3" format="ascii">
			 0.061452 -0.150772 -0.012174
			 0.060256 -0.150253 -0.010058
			 0.058993 -0.150263 -0.009820
			 0.061592 -0.150769 -0.010243
			 0.062248 -0.150902 -0.011754
			 0.057861 -0.150777 -0.012484
			 0.058004 -0.150592 -0.013045
			 0.062414 -0.150597 -0.013366
			 0.060613 -0.150055 -0.008789
			 0.058681 -0.149426 -0.009075
			 0.057091 -0.150229 -0.010259
			 0.063367 -0.150386 -0.011962
			 0.062950 -0.150105 -0.010159
			 0.062078 -0.150120 -0.009632
			 0.051142 -0.149351 -0.010325
			 0.056759 -0.150268 -0.012984
			 0.054495 -0.149765 -0.012685
			 0.060831 -0.149964 -0.014977
			 0.061869 -0.150381 -0.014311
			 0.059028 -0.149498 -0.015193
			 0.056958 -0.148994 -0.014266
			 0.063165 -0.150362 -0.012969
			 0.062661 -0.150272 -0.013932
			 0.061945 -0.149477 -0.008803
			 0.059883 -0.148560 -0.007645
			 0.061803 -0.149829 -0.009246
			 0.057770 -0.147831 -0.007434
			 0.057646 -0.148431 -0.007843
			 0.057148 -0.148632 -0.008724
			 0.056768 -0.148307 -0.008340
			 0.053678 -0.148291 -0.008108
			 0.055754 -0.148515 -0.008471
			 0.063064 -0.149825 -0.012451
			 0.062648 -0.149908 -0.009641
			 0.061568 -0.148652 -0.008881
			 0.049910 -0.148094 -0.006320
			 0.047070 -0.148727 -0.008464
			 0.050987 -0.149244 -0.012005
			 0.056464 -0.148631 -0.014218
			 0.055247 -0.149172 -0.013774
			 0.056033 -0.148990 -0.014002
			 0.052914 -0.148450 -0.014276
			 0.059878 -0.149063 -0.015767
			 0.061287 -0.149793 -0.015205
			 0.061736 -0.149347 -0.014363
			 0.061371 -0.149286 -0.015054
			 0.056373 -0.148340 -0.015052
			 0.058490 -0.148581 -0.015789
			 0.059102 -0.147910 -0.007735
			 0.059784 -0.147912 -0.008187
			 0.057251 -0.147732 -0.007587
			 0.058114 -0.147352 -0.007987
			 0.057368 -0.147240 -0.007925
			 0.056824 -0.147770 -0.007847
			 0.056553 -0.147918 -0.008900
			 0.050504 -0.147409 -0.006007
			 0.051761 -0.147180 -0.006767
			 0.053906 -0.147153 -0.008831
			 0.055898 -0.147904 -0.009196
			 0.060006 -0.148551 -0.015591
			 0.058477 -0.147697 -0.011918
			 0.050015 -0.147211 -0.005542
			 0.049600 -0.147790 -0.005569
			 0.048073 -0.148560 -0.005527
			 0.047590 -0.148820 -0.006305
			 0.046138 -0.148728 -0.007345
			 0.044665 -0.148403 -0.009794
			 0.051017 -0.148606 -0.013538
			 0.048819 -0.148242 -0.013680
			 0.044838 -0.148384 -0.012032
			 0.045753 -0.147978 -0.013633
			 0.055811 -0.148353 -0.014211
			 0.055943 -0.148023 -0.014571
			 0.055084 -0.148601 -0.014124
			 0.050412 -0.147374 -0.014341
			 0.054712 -0.148195 -0.013984
			 0.053153 -0.147726 -0.014194
			 0.057043 -0.148082 -0.015605
			 0.055753 -0.148034 -0.015189
			 0.056941 -0.147673 -0.009616
			 0.049107 -0.144891 -0.004956
			 0.054308 -0.147386 -0.012856
			 0.049566 -0.143561 -0.008380
			 0.048661 -0.143684 -0.006378
			 0.056174 -0.147574 -0.011533
			 0.056445 -0.147396 -0.015105
			 0.056483 -0.147794 -0.013768
			 0.048271 -0.145753 -0.004117
			 0.047917 -0.147276 -0.004268
			 0.047665 -0.147854 -0.004639
			 0.046996 -0.148134 -0.005248
			 0.046415 -0.148372 -0.006363
			 0.045068 -0.148441 -0.008703
			 0.045597 -0.148415 -0.007596
			 0.046812 -0.146777 -0.010174
			 0.045087 -0.148103 -0.011627
			 0.045977 -0.147297 -0.013214
			 0.046000 -0.147088 -0.014897
			 0.047429 -0.146272 -0.015530
			 0.045935 -0.147568 -0.014354
			 0.045824 -0.147420 -0.013736
			 0.055349 -0.148014 -0.013720
			 0.052320 -0.146609 -0.014205
			 0.051337 -0.146021 -0.014395
			 0.054191 -0.147712 -0.013594
			 0.048633 -0.144701 -0.004856
			 0.049106 -0.143342 -0.014058
			 0.048922 -0.143289 -0.009224
			 0.049021 -0.143260 -0.008370
			 0.047631 -0.143818 -0.006205
			 0.047556 -0.146264 -0.004240
			 0.047465 -0.145381 -0.004570
			 0.047307 -0.146944 -0.004289
			 0.046878 -0.147294 -0.004896
			 0.047348 -0.146280 -0.008653
			 0.047142 -0.146374 -0.010753
			 0.047321 -0.145575 -0.010164
			 0.046132 -0.146953 -0.013629
			 0.045566 -0.145514 -0.015386
			 0.046021 -0.147017 -0.014255
			 0.045716 -0.144988 -0.014874
			 0.046926 -0.145397 -0.015715
			 0.048790 -0.144868 -0.015405
			 0.048966 -0.144189 -0.015124
			 0.047473 -0.144789 -0.005028
			 0.048308 -0.143910 -0.015170
			 0.047371 -0.143055 -0.013748
			 0.047244 -0.143073 -0.010900
			 0.047371 -0.143212 -0.010001
			 0.047095 -0.143494 -0.008769
			 0.047690 -0.144699 -0.007954
			 0.047580 -0.145043 -0.009686
			 0.047651 -0.144614 -0.009046
			 0.047152 -0.145368 -0.012365
			 0.047248 -0.144184 -0.009995
			 0.047547 -0.145006 -0.010829
			 0.045820 -0.144494 -0.015182
			 0.046342 -0.143712 -0.013689
			 0.047445 -0.144629 -0.011785
			 0.046325 -0.144043 -0.014986
			 0.046925 -0.143341 -0.014241
			 0.046962 -0.143506 -0.010082
		</DataArray>
	</Points>
			<Polys>
				<DataArray type="Int32" Name="connectivity" format="ascii">
					0 1 2 
					3 1 0 
					4 3 0 
					5 0 2 
					5 6 0 
					6 7 0 
					4 0 7 
					8 9 1 
					3 8 1 
					1 9 2 
					5 2 10 
					2 9 10 
					11 3 4 
					12 3 11 
					13 8 3 
					12 13 3 
					7 11 4 
					14 5 10 
					15 6 5 
					16 15 5 
					16 5 14 
					17 18 6 
					19 17 6 
					19 6 20 
					6 15 20 
					18 7 6 
					21 7 22 
					22 7 18 
					11 7 21 
					23 24 8 
					23 8 25 
					26 8 24 
					27 9 8 
					27 8 26 
					25 8 13 
					10 9 28 
					27 29 9 
					29 28 9 
					14 10 30 
					30 10 31 
					28 29 10 
					29 31 10 
					12 11 32 
					11 21 32 
					33 13 12 
					12 32 34 
					33 12 34 
					25 13 33 
					14 30 35 
					14 35 36 
					37 16 14 
					37 14 36 
					20 15 38 
					15 16 39 
					40 38 15 
					39 40 15 
					16 37 41 
					41 39 16 
					42 43 17 
					19 42 17 
					17 43 18 
					18 44 22 
					18 45 44 
					43 45 18 
					20 46 19 
					19 47 42 
					19 46 47 
					46 20 38 
					21 22 32 
					44 32 22 
					24 23 34 
					23 25 33 
					34 23 33 
					48 26 24 
					24 34 49 
					24 49 48 
					26 50 27 
					51 26 48 
					26 52 50 
					52 26 51 
					50 53 27 
					27 53 29 
					53 50 29 
					54 29 50 
					29 54 31 
					55 35 30 
					56 55 30 
					56 30 57 
					57 30 31 
					57 31 58 
					54 58 31 
					34 32 44 
					34 44 59 
					60 49 34 
					60 34 59 
					61 62 35 
					35 62 63 
					35 55 61 
					35 63 64 
					35 64 36 
					65 36 64 
					66 37 36 
					66 36 65 
					67 41 37 
					68 67 37 
					66 69 37 
					69 70 37 
					70 68 37 
					38 71 72 
					72 46 38 
					71 38 40 
					40 39 73 
					39 41 73 
					71 40 73 
					41 67 74 
					73 41 75 
					41 74 76 
					41 76 75 
					42 59 43 
					42 47 59 
					45 43 59 
					45 59 44 
					77 46 78 
					46 77 47 
					78 46 72 
					59 47 77 
					48 49 51 
					51 49 60 
					54 50 52 
					52 51 60 
					60 79 52 
					79 54 52 
					54 79 58 
					55 56 61 
					80 56 57 
					61 56 80 
					81 82 57 
					80 57 83 
					57 82 83 
					58 84 57 
					84 81 57 
					84 58 79 
					77 60 59 
					77 85 60 
					79 60 84 
					60 85 86 
					86 84 60 
					87 88 61 
					80 87 61 
					88 62 61 
					63 62 88 
					89 90 63 
					64 63 90 
					88 89 63 
					65 64 91 
					64 90 91 
					65 92 66 
					91 93 65 
					65 93 92 
					92 94 66 
					95 69 66 
					95 66 96 
					94 96 66 
					67 68 74 
					68 97 98 
					70 99 68 
					99 97 68 
					74 68 98 
					95 70 69 
					70 95 96 
					70 96 100 
					70 100 99 
					73 101 71 
					72 71 85 
					86 71 101 
					71 86 85 
					85 78 72 
					101 73 75 
					102 76 74 
					74 98 103 
					74 103 102 
					75 76 104 
					75 104 101 
					102 104 76 
					78 85 77 
					80 83 105 
					80 105 87 
					104 102 81 
					102 103 81 
					106 81 103 
					104 81 84 
					106 82 81 
					82 106 107 
					82 107 108 
					82 108 83 
					83 108 109 
					109 105 83 
					84 86 101 
					84 101 104 
					110 87 111 
					88 87 110 
					105 111 87 
					110 112 88 
					89 88 112 
					90 89 113 
					89 112 113 
					113 91 90 
					91 113 114 
					93 91 114 
					92 93 114 
					114 94 92 
					94 115 96 
					94 114 116 
					115 94 116 
					100 96 117 
					115 117 96 
					97 118 98 
					119 97 99 
					97 119 120 
					118 97 120 
					98 118 121 
					122 103 98 
					122 98 121 
					119 99 100 
					117 119 100 
					123 103 122 
					123 106 103 
					109 124 105 
					124 111 105 
					125 106 123 
					106 125 126 
					126 127 106 
					107 106 127 
					107 128 108 
					128 107 127 
					109 108 129 
					129 108 128 
					124 109 111 
					111 109 130 
					130 109 129 
					110 111 112 
					130 113 111 
					111 113 112 
					113 130 114 
					131 114 132 
					130 132 114 
					114 131 116 
					115 133 117 
					115 116 133 
					131 134 116 
					116 134 135 
					135 133 116 
					119 117 120 
					133 120 117 
					120 136 118 
					136 121 118 
					120 137 136 
					138 137 120 
					138 120 133 
					125 122 121 
					136 125 121 
					123 122 125 
					125 136 139 
					139 140 125 
					125 140 126 
					136 126 140 
					137 126 136 
					127 126 137 
					137 141 127 
					127 141 128 
					141 129 128 
					129 132 130 
					134 132 129 
					141 134 129 
					132 134 131 
					135 138 133 
					134 141 138 
					134 138 135 
					140 139 136 
					138 141 137 
				</DataArray>
				<DataArray type="Int32" Name="offsets" format="ascii">
					3 6 9 12 15 18 21 24 27 30 33 36 39 42 45 48 51 54 57 60 63 66 69 72 75 78 81 84 87 90 93 96 99 102 105 108 111 114 117 120 123 126 129 132 135 138 141 144 147 150 153 156 159 162 165 168 171 174 177 180 183 186 189 192 195 198 201 204 207 210 213 216 219 222 225 228 231 234 237 240 243 246 249 252 255 258 261 264 267 270 273 276 279 282 285 288 291 294 297 300 303 306 309 312 315 318 321 324 327 330 333 336 339 342 345 348 351 354 357 360 363 366 369 372 375 378 381 384 387 390 393 396 399 402 405 408 411 414 417 420 423 426 429 432 435 438 441 444 447 450 453 456 459 462 465 468 471 474 477 480 483 486 489 492 495 498 501 504 507 510 513 516 519 522 525 528 531 534 537 540 543 546 549 552 555 558 561 564 567 570 573 576 579 582 585 588 591 594 597 600 603 606 609 612 615 618 621 624 627 630 633 636 639 642 645 648 651 654 657 660 663 666 669 672 675 678 681 684 687 690 693 696 699 702 705 708 711 714 717 720 723 726 729 732 735 738 741 744 747 750 753 756 759 762 765 768 771 774 777 780 783 786 789 792 795 798 801 804 807 810 813 816 819 822 825 828 831 834 837 840 
				</DataArray>
			</Polys>
		</Piece>
	</PolyData>
</VTKFile>
