<?xml version="1.0"?>
<VTKFile type="PolyData" version="0.1" byte_order="LittleEndian" compressor="vtkZLibDataCompressor">
	<PolyData>
		<Piece NumberOfPoints="122" NumberOfVerts="0" NumberOfLines="0" NumberOfStrips="0" NumberOfPolys="246">
		<PointData Normals="Normals">
		<DataArray type="Float32" Name="Normals" NumberOfComponents="3" format="ascii">
			-0.296722 -0.571010 -0.765444
			-0.446236 -0.136422 -0.884456
			-0.276919  0.501587 -0.819589
			-0.702791 -0.682356 -0.201183
			-0.636910 -0.544085 -0.546184
			-0.362944 -0.864782 -0.347022
			 0.851503  0.026239 -0.523693
			 0.968626 -0.000254 -0.248521
			 0.239886 -0.568273 -0.787096
			 0.165254  0.271817 -0.948054
			-0.280257 -0.469999 -0.836993
			-0.025668 -0.170424 -0.985036
			 0.211289  0.649014 -0.730847
			-0.053304  0.746138 -0.663655
			 0.420170 -0.128720 -0.898270
			-0.076745 -0.996905 -0.017057
			-0.375931 -0.848116 -0.373331
			-0.317024 -0.704758 -0.634675
			-0.024915 -0.076974 -0.996722
			 0.973775 -0.227071 -0.014176
			-0.133995 -0.088509 -0.987022
			 0.860978  0.500571  0.090258
			 0.858314  0.321264  0.400108
			 0.403977 -0.874258 -0.269214
			 0.812806  0.048662 -0.580499
			 0.536825  0.781311  0.318390
			-0.363282 -0.663036  0.654530
			 0.155985 -0.280730  0.947027
			 0.742406  0.236451 -0.626837
			 0.282181 -0.037992 -0.958609
			 0.092241 -0.538176 -0.837769
			-0.016448 -0.528098 -0.849024
			-0.264335 -0.670708 -0.693021
			 0.875889 -0.474388 -0.088167
			 0.219790 -0.960247 -0.172100
			 0.032018 -0.812744 -0.581741
			-0.098056 -0.838197 -0.536480
			-0.660950  0.266622 -0.701469
			 0.707335  0.336743  0.621516
			 0.670592 -0.637054  0.380090
			-0.565674 -0.270800 -0.778897
			 0.270377  0.395991  0.877546
			 0.800860 -0.214534  0.559105
			-0.251150 -0.213886  0.944022
			 0.920301  0.256424 -0.295453
			-0.792809  0.454742  0.405786
			-0.692723 -0.641598  0.329375
			-0.350482 -0.481835 -0.803117
			 0.725068 -0.583114 -0.366408
			-0.435144  0.075925  0.897154
			-0.661532  0.446330  0.602631
			-0.791066  0.458817  0.404600
			 0.088913  0.249964  0.964164
			 0.609035 -0.147483 -0.779311
			 0.928011 -0.245421 -0.280295
			 0.014548 -0.479582 -0.877377
			 0.855701 -0.475678 -0.203730
			 0.430886 -0.806426 -0.404987
			 0.590028 -0.610915 -0.527873
			-0.856817 -0.308654 -0.413034
			-0.734316  0.091446 -0.672620
			 0.066205 -0.090833 -0.993663
			-0.537211  0.344390  0.769935
			 0.579183  0.651489 -0.490009
			 0.162282 -0.846334 -0.507329
			 0.032773 -0.486115 -0.873280
			-0.909769  0.067575 -0.409578
			-0.943299  0.005638  0.331898
			 0.524691 -0.076668  0.847833
			 0.668600  0.244987  0.702108
			 0.858366  0.102062  0.502784
			 0.332692 -0.774693 -0.537743
			-0.348227 -0.782149 -0.516703
			-0.730455 -0.325912 -0.600180
			-0.657053 -0.052880 -0.751988
			-0.611324 -0.562962 -0.556199
			-0.141586  0.480176  0.865670
			 0.376487  0.847737  0.373630
			-0.724572  0.215132  0.654762
			 0.584099 -0.787768 -0.195578
			-0.481907 -0.217702  0.848747
			-0.055254  0.866795 -0.495595
			-0.558991  0.432401 -0.707501
			-0.787552  0.213288 -0.578161
			-0.809326 -0.587266 -0.010482
			 0.235884 -0.903281 -0.358388
			 0.201252 -0.144534  0.968818
			 0.311678  0.114646  0.943246
			-0.279169 -0.870430 -0.405482
			 0.741651  0.094556  0.664088
			 0.714294  0.560515  0.419055
			 0.723587  0.518643  0.455446
			 0.749509  0.468876  0.467324
			 0.741899  0.194189 -0.641776
			-0.296459 -0.285020 -0.911524
			-0.501014  0.051968 -0.863877
			-0.739385  0.068726 -0.669766
			-0.442192 -0.233709 -0.865937
			-0.503287  0.000924 -0.864119
			-0.267159 -0.708788  0.652875
			-0.844133 -0.212460  0.492241
			 0.139915 -0.127225  0.981956
			 0.447365 -0.098822  0.888875
			-0.757245 -0.271578 -0.593991
			 0.606890  0.134081  0.783395
			 0.307897  0.844882 -0.437464
			-0.241651  0.860237 -0.448995
			-0.407112  0.910462 -0.072934
			 0.304727  0.676269  0.670672
			 0.580420  0.601973 -0.548398
			-0.693660  0.312240 -0.649108
			-0.936899  0.156677 -0.312527
			-0.740470  0.643392  0.194294
			-0.702919 -0.657215  0.271982
			 0.066659 -0.186800  0.980134
			 0.118715  0.273114  0.954629
			-0.930710 -0.300547 -0.208449
			 0.054967  0.536130  0.842344
			-0.380643  0.846418  0.372408
			-0.615075  0.352084  0.705493
			-0.834974 -0.054050  0.547629
			-0.851664 -0.471210  0.229413
		</DataArray>
	</PointData>
	<Points>
		<DataArray type="Float32" NumberOfComponents="3" format="ascii">
			-0.029819 -0.076501 -0.068863
			-0.045322 -0.072010 -0.052929
			-0.044327 -0.080850 -0.054677
			-0.035282 -0.057528 -0.079741
			-0.042967 -0.062222 -0.062107
			-0.038811 -0.055471 -0.094431
			-0.031418 -0.051766 -0.087808
			-0.025297 -0.071682 -0.060148
			-0.034255 -0.084908 -0.061013
			-0.059127 -0.078011 -0.051587
			-0.051217 -0.063678 -0.053320
			-0.055024 -0.068663 -0.051879
			-0.062600 -0.083971 -0.057797
			-0.053206 -0.085034 -0.059938
			-0.066647 -0.093034 -0.065978
			-0.051734 -0.048677 -0.085567
			-0.048283 -0.054949 -0.066246
			-0.050719 -0.058978 -0.057932
			-0.062716 -0.052389 -0.099876
			-0.022260 -0.035255 -0.096690
			-0.052851 -0.035891 -0.095170
			-0.029869 -0.054046 -0.063728
			-0.034961 -0.044478 -0.077175
			-0.007545 -0.088843 -0.018857
			-0.015992 -0.078453 -0.037371
			-0.025342 -0.066449 -0.041354
			-0.035677 -0.082371 -0.050467
			-0.061014 -0.087158 -0.045616
			-0.070805 -0.077244 -0.060373
			-0.062172 -0.069728 -0.051929
			-0.060491 -0.061737 -0.054657
			-0.078097 -0.091478 -0.074637
			-0.084540 -0.093541 -0.064794
			-0.076817 -0.104660 -0.044220
			-0.060880 -0.050643 -0.073063
			-0.077804 -0.060868 -0.093843
			-0.056570 -0.054964 -0.060940
			-0.079371 -0.043451 -0.085611
			-0.030136 -0.023374 -0.093810
			-0.020766 -0.012688 -0.106588
			-0.058845 -0.015489 -0.094861
			-0.047115 -0.040845 -0.058661
			 0.000010 -0.083726 -0.004923
			-0.027254 -0.106601  0.000583
			 0.000000 -0.079469 -0.026656
			-0.036188 -0.073046 -0.035638
			-0.033729 -0.075291 -0.043025
			-0.037579 -0.099974 -0.017788
			-0.025952 -0.110440 -0.005670
			-0.046114 -0.064378 -0.050000
			-0.108512 -0.088166 -0.051595
			-0.108060 -0.072228 -0.042708
			-0.077588 -0.043167 -0.059939
			-0.069460 -0.066047 -0.054626
			-0.075574 -0.066825 -0.066582
			-0.084704 -0.074215 -0.085320
			-0.079861 -0.062776 -0.083072
			-0.064099 -0.055428 -0.060779
			-0.070113 -0.060373 -0.058863
			-0.089841 -0.078409 -0.067783
			-0.094825 -0.075459 -0.059127
			-0.092707 -0.101931 -0.064757
			-0.114270 -0.103318 -0.043711
			-0.071467 -0.116395 -0.035196
			-0.088941 -0.130816 -0.045117
			-0.097672 -0.117728 -0.061403
			-0.088650 -0.062281 -0.076225
			-0.086209 -0.025934 -0.061845
			-0.076923 -0.000898 -0.053148
			-0.057751  0.022653 -0.093126
			-0.000000  0.000000 -0.120833
			-0.007194 -0.014923 -0.123270
			-0.025767 -0.013557 -0.111765
			-0.050796  0.037341 -0.118911
			-0.075179  0.015460 -0.072247
			-0.094028 -0.020262 -0.063989
			-0.022294 -0.080640 -0.002346
			-0.002515 -0.076525 -0.007104
			-0.029246 -0.091680 -0.001081
			-0.044549 -0.127827 -0.023459
			-0.079997 -0.126794 -0.030146
			-0.039082 -0.105622 -0.017475
			-0.101320 -0.083184 -0.058633
			-0.113492 -0.094068 -0.058714
			-0.113448 -0.115644 -0.050164
			-0.064376 -0.133792 -0.031678
			-0.095802 -0.005519 -0.040828
			-0.091164  0.009621 -0.045500
			-0.110692 -0.024093 -0.051881
			-0.080792  0.031718 -0.057625
			-0.075767  0.081005 -0.076435
			-0.011673  0.020720 -0.123144
			-0.032203  0.042817 -0.117986
			-0.003795  0.011367 -0.129272
			-0.022141  0.017064 -0.132168
			-0.049975  0.045190 -0.127943
			-0.074054  0.072924 -0.095217
			-0.099992  0.057224 -0.060352
			-0.125581  0.031049 -0.054190
			-0.120638 -0.019939 -0.044479
			-0.125632 -0.010078 -0.042406
			-0.112670  0.004130 -0.047053
			-0.106515  0.024731 -0.040493
			-0.126153  0.001275 -0.050133
			-0.084582  0.052767 -0.050023
			-0.051691  0.065471 -0.113834
			-0.072556  0.080010 -0.092479
			-0.092867  0.080280 -0.065454
			-0.085418  0.076531 -0.060986
			-0.022800  0.036117 -0.131464
			-0.109011  0.066410 -0.060971
			-0.136826  0.027100 -0.042425
			-0.122957  0.056362 -0.047167
			-0.129456  0.005228 -0.042604
			-0.124117  0.016544 -0.030060
			-0.118317  0.036791 -0.035422
			-0.137926  0.016807 -0.040577
			-0.101838  0.064646 -0.047068
			-0.105080  0.071715 -0.055333
			-0.134522  0.032374 -0.036368
			-0.136949  0.015755 -0.035222
			-0.133523  0.006379 -0.036939
		</DataArray>
	</Points>
			<Polys>
				<DataArray type="Int32" Name="connectivity" format="ascii">
					2 1 0 
					0 4 3 
					3 5 0 
					1 4 0 
					5 6 0 
					7 0 6 
					0 8 2 
					7 8 0 
					9 1 2 
					1 11 10 
					4 1 10 
					1 9 11 
					9 2 12 
					2 13 12 
					14 2 8 
					8 13 2 
					5 3 15 
					3 4 16 
					15 3 16 
					4 10 17 
					16 4 17 
					15 18 5 
					5 18 6 
					6 20 19 
					6 18 20 
					6 21 7 
					22 21 6 
					19 22 6 
					7 24 23 
					23 8 7 
					7 21 25 
					24 7 25 
					8 23 26 
					14 8 27 
					27 8 26 
					13 8 14 
					12 28 9 
					9 28 29 
					9 29 11 
					10 30 17 
					11 30 10 
					29 30 11 
					14 28 12 
					13 14 12 
					31 28 14 
					14 32 31 
					14 27 33 
					32 14 33 
					35 15 34 
					15 16 34 
					18 15 35 
					16 17 36 
					34 16 36 
					17 30 36 
					18 35 37 
					18 37 20 
					22 19 38 
					39 38 19 
					19 20 39 
					39 20 40 
					40 20 37 
					41 21 22 
					25 21 41 
					41 22 38 
					43 23 42 
					23 24 44 
					46 23 45 
					26 23 46 
					42 23 44 
					23 48 47 
					23 43 48 
					23 47 45 
					44 24 25 
					44 25 45 
					45 25 49 
					25 41 49 
					49 27 26 
					46 49 26 
					51 50 27 
					51 27 52 
					50 33 27 
					41 27 49 
					52 27 41 
					28 54 53 
					28 53 29 
					31 55 28 
					28 56 54 
					55 56 28 
					53 30 29 
					58 57 30 
					36 30 57 
					58 30 53 
					31 59 55 
					31 32 59 
					32 61 60 
					32 60 59 
					32 33 61 
					63 33 62 
					50 62 33 
					65 33 64 
					64 33 63 
					61 33 65 
					34 57 56 
					56 35 34 
					57 34 36 
					55 35 56 
					35 55 66 
					35 66 37 
					67 40 37 
					67 37 66 
					38 68 41 
					38 69 68 
					39 69 38 
					39 71 70 
					70 69 39 
					72 71 39 
					72 39 40 
					73 72 40 
					74 73 40 
					74 40 75 
					67 75 40 
					52 41 67 
					41 68 67 
					42 77 76 
					42 76 43 
					77 42 44 
					78 43 76 
					45 47 43 
					45 43 78 
					43 79 48 
					79 43 80 
					81 80 43 
					81 43 47 
					77 44 45 
					78 76 45 
					45 49 46 
					76 77 45 
					48 81 47 
					48 79 81 
					83 50 82 
					62 50 83 
					82 50 51 
					51 60 82 
					67 51 52 
					51 67 60 
					53 54 58 
					58 54 57 
					56 57 54 
					55 59 66 
					60 66 59 
					60 61 82 
					60 67 66 
					61 83 82 
					61 65 83 
					83 84 62 
					62 84 80 
					63 62 80 
					63 80 81 
					85 64 63 
					63 79 85 
					79 63 81 
					64 80 84 
					65 64 84 
					85 80 64 
					65 84 83 
					67 68 75 
					68 87 86 
					88 68 86 
					75 68 88 
					89 68 69 
					68 89 87 
					89 69 90 
					92 69 91 
					90 69 92 
					69 70 91 
					91 70 93 
					93 70 71 
					72 94 71 
					71 94 93 
					94 72 73 
					94 73 95 
					73 74 96 
					73 96 95 
					74 98 97 
					74 97 96 
					98 74 75 
					98 75 88 
					85 79 80 
					99 88 86 
					99 86 100 
					87 101 86 
					86 101 100 
					89 102 87 
					102 101 87 
					103 88 100 
					100 88 99 
					88 103 98 
					90 104 89 
					89 104 102 
					90 92 105 
					106 90 105 
					107 90 106 
					90 107 108 
					108 104 90 
					109 91 93 
					92 91 109 
					92 109 105 
					109 93 94 
					109 94 95 
					105 109 95 
					105 95 96 
					106 105 96 
					107 96 110 
					96 97 110 
					106 96 107 
					97 98 110 
					98 103 111 
					110 98 112 
					98 111 112 
					113 100 101 
					113 103 100 
					114 101 102 
					113 101 114 
					104 115 102 
					102 115 114 
					116 103 113 
					111 103 116 
					117 104 108 
					115 104 117 
					118 108 107 
					110 118 107 
					117 108 118 
					110 112 118 
					111 120 119 
					112 111 119 
					116 120 111 
					112 117 118 
					112 119 115 
					115 117 112 
					114 121 113 
					113 121 114 
					116 113 121 
					114 120 121 
					114 119 120 
					115 119 114 
					121 120 116 
				</DataArray>
				<DataArray type="Int32" Name="offsets" format="ascii">
					3 6 9 12 15 18 21 24 27 30 33 36 39 42 45 48 51 54 57 60 63 66 69 72 75 78 81 84 87 90 93 96 99 102 105 108 111 114 117 120 123 126 129 132 135 138 141 144 147 150 153 156 159 162 165 168 171 174 177 180 183 186 189 192 195 198 201 204 207 210 213 216 219 222 225 228 231 234 237 240 243 246 249 252 255 258 261 264 267 270 273 276 279 282 285 288 291 294 297 300 303 306 309 312 315 318 321 324 327 330 333 336 339 342 345 348 351 354 357 360 363 366 369 372 375 378 381 384 387 390 393 396 399 402 405 408 411 414 417 420 423 426 429 432 435 438 441 444 447 450 453 456 459 462 465 468 471 474 477 480 483 486 489 492 495 498 501 504 507 510 513 516 519 522 525 528 531 534 537 540 543 546 549 552 555 558 561 564 567 570 573 576 579 582 585 588 591 594 597 600 603 606 609 612 615 618 621 624 627 630 633 636 639 642 645 648 651 654 657 660 663 666 669 672 675 678 681 684 687 690 693 696 699 702 705 708 711 714 717 720 723 726 729 732 735 738 
				</DataArray>
			</Polys>
		</Piece>
	</PolyData>
</VTKFile>
