<?xml version="1.0"?>
<VTKFile type="PolyData" version="0.1" byte_order="LittleEndian" compressor="vtkZLibDataCompressor">
	<PolyData>
		<Piece NumberOfPoints="174" NumberOfVerts="0" NumberOfLines="0" NumberOfStrips="0" NumberOfPolys="344">
		<PointData Normals="Normals">
		<DataArray type="Float32" Name="Normals" NumberOfComponents="3" format="ascii">
			-0.380113 -0.924161 -0.037965
			 0.162234 -0.985656 -0.046494
			-0.345888 -0.922615  0.170714
			-0.495942 -0.859816 -0.121485
			-0.665014 -0.746699 -0.014038
			 0.249151 -0.808055  0.533826
			-0.122239 -0.794947  0.594236
			 0.132026 -0.990989 -0.022579
			 0.845851 -0.532771  0.026278
			 0.864735 -0.502164  0.008054
			-0.573784 -0.708324  0.411156
			-0.416088 -0.887149 -0.199595
			-0.646117 -0.745609 -0.163097
			-0.686040 -0.683012 -0.250687
			-0.589482 -0.806700  0.041799
			-0.025460 -0.270152  0.962481
			 0.489794 -0.577341  0.653283
			 0.254978 -0.959781 -0.117499
			 0.755069 -0.652131  0.067796
			 0.965724  0.242271  0.093181
			 0.999835  0.011086  0.014392
			 0.944428 -0.141908  0.296509
			 0.943559  0.317107 -0.095603
			-0.554306 -0.491933  0.671377
			-0.620637 -0.725743  0.296827
			-0.380472 -0.752967 -0.536918
			-0.524171 -0.844948 -0.106335
			-0.551798 -0.704196 -0.446796
			-0.639455 -0.638362 -0.428475
			-0.607140 -0.429523 -0.668500
			-0.467889 -0.875807  0.118499
			 0.481465 -0.309769  0.819899
			 0.439947 -0.004385  0.898013
			 0.018307  0.097590  0.995058
			-0.190220  0.211371  0.958717
			-0.345982 -0.336312  0.875894
			 0.190834  0.353616  0.915717
			 0.476663  0.316158  0.820266
			 0.190306 -0.703960 -0.684269
			 0.691615 -0.524136 -0.496940
			 0.475750  0.878065  0.051610
			 0.707695  0.702022  0.079579
			 0.880126 -0.101673 -0.463725
			 0.810992  0.259753 -0.524234
			 0.652944  0.618151 -0.437669
			 0.785089  0.416949  0.458027
			-0.491852 -0.139325  0.859459
			-0.513170 -0.712994  0.477804
			-0.182620 -0.399456 -0.898379
			-0.622245 -0.767960  0.151820
			-0.470131 -0.592476 -0.654178
			-0.566787 -0.767130  0.300440
			-0.521618 -0.783185 -0.338432
			-0.237842 -0.466907 -0.851722
			-0.191260 -0.251989 -0.948642
			-0.231640 -0.185114 -0.955027
			-0.630905 -0.400489 -0.664505
			-0.409960  0.036435 -0.911376
			-0.262031 -0.213760 -0.941088
			 0.325764  0.744372  0.582914
			-0.264521  0.857509  0.441256
			 0.086918 -0.305567 -0.948195
			 0.356851 -0.076726 -0.931005
			 0.286891  0.932742  0.218371
			 0.211047  0.977450 -0.007079
			 0.286097  0.887553 -0.361106
			 0.257589  0.235332 -0.937159
			-0.024899  0.397371 -0.917320
			-0.299424 -0.452292  0.840105
			 0.211747  0.327462  0.920832
			-0.117214  0.679811  0.723960
			-0.390519 -0.280201 -0.876916
			-0.265830 -0.552052  0.790299
			-0.193306 -0.623715  0.757372
			-0.437631 -0.858523  0.267241
			-0.534214 -0.726236 -0.432663
			-0.558382 -0.827467  0.059231
			-0.471861 -0.398948 -0.786249
			-0.302885 -0.429788 -0.850613
			 0.149269 -0.071482 -0.986209
			 0.394267  0.371467 -0.840575
			 0.108138  0.015824 -0.994010
			 0.340477  0.430539 -0.835890
			-0.091429  0.325985 -0.940943
			 0.345885  0.651683 -0.675035
			-0.254827 -0.067399 -0.964635
			-0.100229  0.819270 -0.564580
			 0.088021  0.804142 -0.587884
			 0.628923  0.757273  0.176049
			 0.467485  0.421275  0.777165
			 0.294061  0.949002 -0.113681
			 0.560046  0.825657 -0.068104
			 0.272326 -0.129951  0.953390
			 0.251306 -0.205577  0.945824
			 0.109230 -0.299884  0.947702
			-0.422070 -0.761434  0.492012
			-0.062200 -0.406587  0.911492
			-0.320268 -0.599215  0.733737
			 0.336010 -0.160293  0.928118
			-0.591947 -0.750683  0.293385
			-0.743908 -0.522007 -0.417264
			-0.751964 -0.643632 -0.142434
			-0.640178 -0.312522 -0.701785
			-0.966497  0.021092  0.255809
			-0.455350  0.108709 -0.883651
			-0.788263  0.382706 -0.481848
			-0.767686  0.240994 -0.593784
			 0.579340  0.381098 -0.720507
			 0.728771  0.682040 -0.060945
			-0.554137  0.544269 -0.629844
			 0.369223  0.426531 -0.825679
			 0.718046  0.486579  0.497645
			 0.530027  0.210102  0.821540
			-0.593683 -0.579484  0.558335
			-0.649705 -0.207718  0.731257
			 0.075290 -0.128658  0.988827
			-0.601142  0.405282  0.688749
			 0.296003  0.017325  0.955030
			 0.733440  0.097566  0.672716
			 0.776891  0.470828  0.418044
			-0.835189  0.163625  0.525058
			-0.892808  0.276120 -0.355881
			-0.915685  0.400539 -0.033001
			-0.237579  0.957245  0.165040
			-0.292977  0.946677  0.134041
			-0.717266  0.695381  0.044438
			-0.454770  0.886577  0.084648
			 0.787839  0.475800 -0.391054
			 0.852036  0.522775 -0.027202
			-0.519826  0.822768 -0.229856
			-0.875272  0.380988  0.297904
			 0.653570  0.639169 -0.405351
			-0.795167  0.218837  0.565526
			-0.678173  0.687316  0.260150
			-0.642281  0.704536  0.301835
			 0.141063  0.370213  0.918174
			-0.081841  0.344341  0.935271
			-0.465766  0.590663  0.658923
			-0.501897  0.862494  0.064829
			-0.788465  0.557050  0.260802
			-0.688168  0.723589 -0.053328
			 0.688840  0.291797  0.663592
			 0.379014  0.589495  0.713333
			 0.890531  0.353355  0.286523
			 0.836906  0.344863  0.425040
			-0.457818  0.884076  0.093872
			-0.422541  0.905976 -0.025805
			-0.220537  0.973998  0.051883
			-0.187522  0.982089 -0.018355
			-0.402371  0.913130  0.065509
			-0.801217  0.582403  0.137324
			 0.297340  0.954185 -0.033474
			 0.888300  0.424177  0.176058
			 0.698023  0.662368  0.272089
			-0.664423  0.744442 -0.065943
			-0.929280  0.273576  0.248183
			-0.983665  0.156405  0.089112
			-0.978774  0.151632  0.137874
			-0.392160  0.721215  0.571016
			-0.832487  0.547889 -0.082360
			-0.552786  0.833264 -0.009950
			-0.683363  0.687014  0.247037
			-0.908979  0.413291 -0.054302
			-0.858772  0.463389  0.218589
			-0.120656  0.907806  0.401660
			-0.670812  0.741469 -0.015325
			-0.725701  0.642363 -0.246429
			-0.873382  0.419348 -0.247690
			-0.839869  0.542456  0.019000
			-0.795463  0.565569  0.217647
			-0.969194  0.237801  0.064133
			-0.992098  0.117531  0.043906
			-0.926225  0.164811  0.339035
			-0.917947  0.386588  0.089016
		</DataArray>
	</PointData>
	<Points>
		<DataArray type="Float32" NumberOfComponents="3" format="ascii">
			 0.043698 -0.139427 -0.026273
			 0.044827 -0.139608 -0.026171
			 0.043977 -0.139486 -0.025501
			 0.043473 -0.138958 -0.028692
			 0.042576 -0.138610 -0.026321
			 0.045208 -0.139288 -0.024747
			 0.044639 -0.139405 -0.024902
			 0.044156 -0.139207 -0.028748
			 0.046925 -0.137411 -0.028306
			 0.047087 -0.138089 -0.025180
			 0.042548 -0.138516 -0.024906
			 0.043818 -0.138833 -0.030553
			 0.041346 -0.136965 -0.028552
			 0.042753 -0.138215 -0.029583
			 0.040845 -0.136500 -0.026831
			 0.045858 -0.134977 -0.022820
			 0.046558 -0.138215 -0.024214
			 0.045502 -0.139079 -0.030946
			 0.046985 -0.137905 -0.030266
			 0.047023 -0.135305 -0.028044
			 0.047735 -0.135837 -0.030234
			 0.047548 -0.136147 -0.024277
			 0.047456 -0.135236 -0.025962
			 0.041642 -0.137289 -0.024487
			 0.040555 -0.136160 -0.025490
			 0.044561 -0.138774 -0.032026
			 0.040098 -0.136243 -0.028243
			 0.033097 -0.130423 -0.029931
			 0.040929 -0.135738 -0.030629
			 0.041842 -0.136096 -0.031864
			 0.039654 -0.136092 -0.026712
			 0.046899 -0.136981 -0.023574
			 0.046417 -0.135543 -0.022970
			 0.044367 -0.134222 -0.022712
			 0.043551 -0.134120 -0.022754
			 0.041579 -0.135973 -0.023816
			 0.045301 -0.133984 -0.022857
			 0.045978 -0.134422 -0.023000
			 0.045448 -0.138771 -0.032162
			 0.046740 -0.137680 -0.032418
			 0.045428 -0.133621 -0.027815
			 0.047128 -0.134162 -0.030082
			 0.047417 -0.135998 -0.032494
			 0.047273 -0.135125 -0.032484
			 0.046925 -0.134312 -0.032453
			 0.047007 -0.134742 -0.023651
			 0.040792 -0.134984 -0.024099
			 0.039566 -0.135701 -0.025650
			 0.045332 -0.138272 -0.032445
			 0.036116 -0.133315 -0.026871
			 0.040768 -0.135070 -0.031284
			 0.035206 -0.132493 -0.026247
			 0.030638 -0.128513 -0.029745
			 0.029697 -0.126345 -0.031504
			 0.034129 -0.129604 -0.031037
			 0.039204 -0.133591 -0.031403
			 0.041253 -0.135162 -0.031573
			 0.041861 -0.134609 -0.032238
			 0.042846 -0.136329 -0.032309
			 0.045345 -0.133466 -0.023151
			 0.042991 -0.133139 -0.023729
			 0.046251 -0.137071 -0.032848
			 0.046828 -0.135838 -0.033049
			 0.041979 -0.133121 -0.025815
			 0.045098 -0.133095 -0.030134
			 0.045027 -0.133287 -0.032253
			 0.046269 -0.134609 -0.033086
			 0.044960 -0.133965 -0.032936
			 0.039223 -0.134114 -0.024352
			 0.040228 -0.133038 -0.024136
			 0.041631 -0.133767 -0.024370
			 0.040733 -0.134665 -0.031676
			 0.036295 -0.131245 -0.023635
			 0.034328 -0.129039 -0.022623
			 0.031123 -0.128249 -0.023224
			 0.024091 -0.124983 -0.029802
			 0.022450 -0.124488 -0.025150
			 0.024504 -0.123701 -0.030980
			 0.026698 -0.123382 -0.032451
			 0.031091 -0.125154 -0.031941
			 0.036942 -0.129851 -0.031154
			 0.028999 -0.123589 -0.032526
			 0.039255 -0.131765 -0.031301
			 0.041016 -0.133773 -0.031621
			 0.040133 -0.132397 -0.031163
			 0.042834 -0.135021 -0.032637
			 0.043957 -0.133164 -0.032141
			 0.041290 -0.133082 -0.031174
			 0.039666 -0.131693 -0.026333
			 0.039453 -0.132398 -0.024178
			 0.041889 -0.132819 -0.029758
			 0.040491 -0.132158 -0.028414
			 0.038072 -0.131669 -0.023675
			 0.037517 -0.130824 -0.023253
			 0.035026 -0.128776 -0.022416
			 0.025950 -0.125708 -0.022247
			 0.027899 -0.123713 -0.019763
			 0.026432 -0.124650 -0.020692
			 0.030697 -0.125038 -0.020555
			 0.023096 -0.124582 -0.023717
			 0.022763 -0.123837 -0.029493
			 0.022260 -0.124274 -0.026532
			 0.023191 -0.123413 -0.030282
			 0.021725 -0.123665 -0.025281
			 0.025266 -0.121782 -0.032349
			 0.023287 -0.122539 -0.030649
			 0.022842 -0.122993 -0.030042
			 0.031606 -0.124696 -0.031680
			 0.035391 -0.127483 -0.027756
			 0.025885 -0.120365 -0.031895
			 0.028902 -0.120905 -0.032010
			 0.038380 -0.131020 -0.024021
			 0.035493 -0.128440 -0.022523
			 0.024106 -0.124565 -0.022426
			 0.024849 -0.123319 -0.020702
			 0.027828 -0.121939 -0.019129
			 0.026599 -0.121658 -0.019136
			 0.028713 -0.121439 -0.019177
			 0.031037 -0.123576 -0.020793
			 0.032237 -0.124514 -0.021828
			 0.022308 -0.123780 -0.023850
			 0.022290 -0.123127 -0.029225
			 0.021681 -0.123367 -0.026439
			 0.022246 -0.123092 -0.026248
			 0.022872 -0.123411 -0.024109
			 0.025495 -0.120990 -0.031920
			 0.023564 -0.122427 -0.030221
			 0.031018 -0.123025 -0.031099
			 0.032010 -0.123764 -0.025564
			 0.026673 -0.119062 -0.031036
			 0.027201 -0.120091 -0.028956
			 0.029928 -0.120201 -0.030709
			 0.023179 -0.123721 -0.022799
			 0.024765 -0.122913 -0.021105
			 0.023956 -0.123309 -0.021959
			 0.028335 -0.120936 -0.019303
			 0.027524 -0.121267 -0.019029
			 0.027231 -0.120816 -0.019515
			 0.025141 -0.122744 -0.021534
			 0.027102 -0.120541 -0.019938
			 0.025775 -0.122193 -0.022584
			 0.030263 -0.121533 -0.019880
			 0.029364 -0.120067 -0.020057
			 0.031675 -0.123486 -0.021920
			 0.030487 -0.121020 -0.020748
			 0.024329 -0.122994 -0.022363
			 0.022463 -0.122856 -0.028188
			 0.023142 -0.122689 -0.028722
			 0.023935 -0.123399 -0.024226
			 0.025609 -0.122895 -0.026724
			 0.026985 -0.121452 -0.027056
			 0.028139 -0.117968 -0.025805
			 0.030648 -0.120565 -0.021587
			 0.029793 -0.119213 -0.021727
			 0.027503 -0.118392 -0.029943
			 0.027348 -0.118876 -0.030055
			 0.027341 -0.118843 -0.029212
			 0.027686 -0.119944 -0.027790
			 0.027787 -0.119135 -0.020533
			 0.027639 -0.119610 -0.021419
			 0.025357 -0.122883 -0.025558
			 0.026757 -0.121884 -0.025218
			 0.027996 -0.120171 -0.024095
			 0.027695 -0.120739 -0.024843
			 0.028264 -0.118824 -0.021097
			 0.026376 -0.121866 -0.025634
			 0.026670 -0.122011 -0.026134
			 0.027525 -0.120719 -0.026152
			 0.026936 -0.121247 -0.025740
			 0.028424 -0.118185 -0.022272
			 0.027410 -0.118622 -0.028317
			 0.027568 -0.119834 -0.025672
			 0.027852 -0.120051 -0.024930
			 0.027275 -0.120445 -0.025632
		</DataArray>
	</Points>
			<Polys>
				<DataArray type="Int32" Name="connectivity" format="ascii">
					0 1 2 
					1 0 3 
					0 4 3 
					2 4 0 
					5 6 1 
					6 2 1 
					3 7 1 
					7 8 1 
					8 9 1 
					9 5 1 
					2 6 10 
					2 10 4 
					11 7 3 
					4 12 3 
					3 12 13 
					13 11 3 
					4 14 12 
					10 14 4 
					6 5 15 
					5 16 15 
					9 16 5 
					15 10 6 
					7 11 17 
					8 7 18 
					18 7 17 
					9 8 19 
					8 20 19 
					18 20 8 
					21 16 9 
					21 9 22 
					22 9 19 
					15 23 10 
					23 24 10 
					10 24 14 
					25 17 11 
					25 11 13 
					26 12 14 
					12 26 27 
					28 12 27 
					12 28 13 
					29 25 13 
					28 29 13 
					30 14 24 
					26 14 30 
					16 31 15 
					31 32 15 
					33 34 15 
					34 35 15 
					35 23 15 
					33 15 36 
					15 32 37 
					15 37 36 
					21 31 16 
					25 38 17 
					18 17 39 
					17 38 39 
					20 18 39 
					40 22 19 
					20 41 19 
					19 41 40 
					42 43 20 
					41 20 44 
					20 43 44 
					42 20 39 
					45 21 22 
					21 45 31 
					22 40 45 
					46 23 35 
					24 23 46 
					47 24 46 
					24 47 30 
					48 38 25 
					48 25 29 
					30 49 26 
					27 26 49 
					27 50 28 
					49 51 27 
					52 27 51 
					53 54 27 
					53 27 52 
					54 55 27 
					55 50 27 
					28 50 56 
					29 28 56 
					57 58 29 
					58 48 29 
					57 29 56 
					47 49 30 
					45 32 31 
					32 45 37 
					33 36 34 
					34 36 59 
					60 46 34 
					35 34 46 
					34 59 60 
					36 37 59 
					37 45 59 
					38 61 39 
					61 38 48 
					62 42 39 
					62 39 61 
					63 40 64 
					64 40 41 
					63 60 40 
					59 45 40 
					60 59 40 
					64 41 65 
					65 41 44 
					42 62 43 
					66 44 43 
					66 43 62 
					66 67 44 
					65 44 67 
					68 46 69 
					46 68 47 
					69 46 70 
					46 60 70 
					49 47 68 
					58 61 48 
					51 49 68 
					55 71 50 
					50 71 57 
					50 57 56 
					51 68 72 
					51 72 73 
					74 51 73 
					52 51 74 
					75 52 76 
					52 74 76 
					75 77 52 
					78 52 77 
					53 52 78 
					79 80 53 
					53 78 81 
					53 81 79 
					54 53 80 
					80 82 54 
					82 55 54 
					55 83 71 
					84 83 55 
					82 84 55 
					67 85 57 
					86 67 57 
					83 57 71 
					87 86 57 
					87 57 83 
					58 57 85 
					62 61 58 
					66 62 58 
					66 58 67 
					85 67 58 
					70 60 63 
					88 89 63 
					90 91 63 
					63 91 88 
					64 90 63 
					69 63 89 
					70 63 69 
					90 64 87 
					65 86 64 
					86 87 64 
					86 65 67 
					72 68 92 
					89 92 68 
					69 89 68 
					92 93 72 
					73 72 93 
					93 94 73 
					73 95 74 
					73 96 97 
					73 98 96 
					73 94 98 
					73 97 95 
					95 99 74 
					99 76 74 
					100 75 101 
					75 76 101 
					77 75 102 
					75 100 102 
					101 76 103 
					103 76 99 
					104 77 105 
					106 105 77 
					106 77 102 
					104 78 77 
					78 104 81 
					107 80 79 
					107 79 81 
					108 91 80 
					82 80 91 
					107 108 80 
					109 81 104 
					110 107 81 
					109 110 81 
					84 82 91 
					84 87 83 
					90 84 91 
					87 84 90 
					108 111 88 
					108 88 91 
					88 111 89 
					111 92 89 
					92 111 93 
					111 112 93 
					112 94 93 
					112 98 94 
					113 95 114 
					114 95 97 
					113 99 95 
					115 116 96 
					114 96 116 
					96 117 115 
					96 114 97 
					98 117 96 
					118 98 119 
					117 98 118 
					98 112 119 
					99 120 103 
					113 120 99 
					102 100 121 
					121 100 101 
					101 122 121 
					103 122 101 
					121 106 102 
					123 122 103 
					103 124 123 
					103 120 124 
					104 125 109 
					105 125 104 
					126 105 106 
					125 105 126 
					126 106 121 
					127 108 107 
					110 127 107 
					127 128 108 
					108 128 119 
					119 111 108 
					129 110 109 
					130 109 125 
					130 129 109 
					127 110 131 
					129 131 110 
					111 119 112 
					113 132 120 
					114 132 113 
					116 133 114 
					134 132 114 
					133 134 114 
					115 117 135 
					135 136 115 
					136 116 115 
					116 136 137 
					116 138 133 
					139 116 137 
					139 140 116 
					140 138 116 
					141 142 117 
					135 117 142 
					118 141 117 
					118 119 143 
					118 143 144 
					141 118 144 
					143 119 128 
					120 132 145 
					120 145 124 
					146 121 122 
					121 147 126 
					147 121 146 
					122 123 146 
					146 123 147 
					124 148 123 
					123 148 149 
					147 123 149 
					145 148 124 
					149 125 126 
					149 150 125 
					150 130 125 
					126 147 149 
					128 127 131 
					131 151 128 
					152 143 128 
					151 153 128 
					152 128 153 
					131 129 154 
					154 129 155 
					155 129 130 
					156 155 130 
					130 157 156 
					150 157 130 
					131 154 151 
					132 134 145 
					134 133 138 
					134 138 145 
					136 135 158 
					135 142 158 
					136 158 137 
					158 139 137 
					145 138 140 
					159 139 158 
					139 159 140 
					145 140 160 
					140 161 160 
					162 163 140 
					159 162 140 
					163 161 140 
					142 141 153 
					141 144 153 
					164 142 153 
					164 158 142 
					143 152 144 
					152 153 144 
					148 145 160 
					149 148 160 
					165 166 149 
					150 149 166 
					149 160 165 
					167 150 168 
					150 167 157 
					150 166 168 
					169 153 151 
					170 169 151 
					151 154 170 
					169 164 153 
					170 154 156 
					155 156 154 
					170 156 157 
					157 171 170 
					171 157 167 
					158 164 159 
					159 164 169 
					162 159 169 
					161 165 160 
					165 161 168 
					163 168 161 
					162 169 172 
					162 172 163 
					163 173 168 
					173 163 172 
					166 165 168 
					173 171 167 
					173 167 168 
					171 169 170 
					171 172 169 
					172 171 173 
				</DataArray>
				<DataArray type="Int32" Name="offsets" format="ascii">
					3 6 9 12 15 18 21 24 27 30 33 36 39 42 45 48 51 54 57 60 63 66 69 72 75 78 81 84 87 90 93 96 99 102 105 108 111 114 117 120 123 126 129 132 135 138 141 144 147 150 153 156 159 162 165 168 171 174 177 180 183 186 189 192 195 198 201 204 207 210 213 216 219 222 225 228 231 234 237 240 243 246 249 252 255 258 261 264 267 270 273 276 279 282 285 288 291 294 297 300 303 306 309 312 315 318 321 324 327 330 333 336 339 342 345 348 351 354 357 360 363 366 369 372 375 378 381 384 387 390 393 396 399 402 405 408 411 414 417 420 423 426 429 432 435 438 441 444 447 450 453 456 459 462 465 468 471 474 477 480 483 486 489 492 495 498 501 504 507 510 513 516 519 522 525 528 531 534 537 540 543 546 549 552 555 558 561 564 567 570 573 576 579 582 585 588 591 594 597 600 603 606 609 612 615 618 621 624 627 630 633 636 639 642 645 648 651 654 657 660 663 666 669 672 675 678 681 684 687 690 693 696 699 702 705 708 711 714 717 720 723 726 729 732 735 738 741 744 747 750 753 756 759 762 765 768 771 774 777 780 783 786 789 792 795 798 801 804 807 810 813 816 819 822 825 828 831 834 837 840 843 846 849 852 855 858 861 864 867 870 873 876 879 882 885 888 891 894 897 900 903 906 909 912 915 918 921 924 927 930 933 936 939 942 945 948 951 954 957 960 963 966 969 972 975 978 981 984 987 990 993 996 999 1002 1005 1008 1011 1014 1017 1020 1023 1026 1029 1032 
				</DataArray>
			</Polys>
		</Piece>
	</PolyData>
</VTKFile>
