<?xml version="1.0"?>
<VTKFile type="PolyData" version="0.1" byte_order="LittleEndian" compressor="vtkZLibDataCompressor">
	<PolyData>
		<Piece NumberOfPoints="46" NumberOfVerts="0" NumberOfLines="0" NumberOfStrips="0" NumberOfPolys="88">
		<PointData Normals="Normals">
		<DataArray type="Float32" Name="Normals" NumberOfComponents="3" format="ascii">
			 0.465820  0.739489  0.485972
			-0.113079  0.993583 -0.002563
			 0.131449  0.975257 -0.177752
			 0.641363  0.720192  0.264532
			 0.249766 -0.185833  0.950307
			 0.591333 -0.011077  0.806351
			 0.061666  0.834759 -0.547152
			 0.475591 -0.197202  0.857278
			 0.663686  0.632814  0.398831
			 0.534575  0.675126  0.508364
			-0.648924  0.731793 -0.208270
			 0.974888  0.199266 -0.099431
			-0.145710  0.755918 -0.638245
			 0.336946  0.824337 -0.454902
			 0.050439  0.579364 -0.813507
			-0.735780  0.676819 -0.023320
			-0.548094  0.828770  0.112841
			 0.143760  0.831902  0.535977
			 0.027667  0.639874  0.767982
			 0.110449  0.969582  0.218429
			-0.662173  0.022184  0.749022
			 0.395618 -0.832971  0.386841
			 0.334717 -0.817403  0.468846
			 0.124784 -0.991372 -0.040126
			-0.379055 -0.683554  0.623756
			 0.100088 -0.511881  0.853206
			-0.142422  0.312523 -0.939173
			 0.763841 -0.521221  0.380624
			 0.588764  0.386973 -0.709654
			 0.474769 -0.092984 -0.875185
			-0.419720  0.381332 -0.823663
			-0.278683 -0.321380 -0.905014
			 0.142431 -0.647512 -0.748626
			-0.538501  0.173409 -0.824589
			-0.768253  0.598892 -0.226088
			-0.978736 -0.045506  0.200014
			 0.428464 -0.887522  0.169481
			 0.005388 -0.995270 -0.096997
			-0.234891 -0.956200 -0.174663
			-0.835015 -0.526082  0.161207
			 0.061489 -0.891901 -0.448030
			-0.671424  0.071966 -0.737571
			-0.645598 -0.330133 -0.688633
			-0.706439 -0.451051 -0.545433
			-0.142922 -0.978117 -0.151196
			 0.310739 -0.883924 -0.349457
		</DataArray>
	</PointData>
	<Points>
		<DataArray type="Float32" NumberOfComponents="3" format="ascii">
			 0.029128 -0.002314 -0.038101
			 0.033001 -0.002728 -0.039698
			 0.027774 -0.001602 -0.038334
			 0.028115 -0.001485 -0.037322
			 0.031125 -0.004003 -0.037365
			 0.029302 -0.003846 -0.036951
			 0.030404 -0.002455 -0.040059
			 0.031568 -0.003687 -0.037511
			 0.032762 -0.002821 -0.038018
			 0.033252 -0.002621 -0.038600
			 0.032408 -0.003094 -0.037771
			 0.033299 -0.002643 -0.039248
			 0.032369 -0.002995 -0.041086
			 0.032897 -0.003258 -0.041541
			 0.027815 -0.002649 -0.040660
			 0.026399 -0.001847 -0.038700
			 0.027011 -0.001385 -0.037068
			 0.027416 -0.001569 -0.036061
			 0.027290 -0.001945 -0.035575
			 0.027508 -0.001310 -0.036592
			 0.027412 -0.002974 -0.035218
			 0.031452 -0.004259 -0.037932
			 0.029109 -0.004483 -0.037158
			 0.029662 -0.005070 -0.040323
			 0.027484 -0.004542 -0.035990
			 0.027509 -0.004156 -0.035640
			 0.029317 -0.003482 -0.040717
			 0.033045 -0.003280 -0.038104
			 0.032863 -0.003660 -0.041909
			 0.032486 -0.004188 -0.042289
			 0.030934 -0.004395 -0.041487
			 0.029051 -0.004501 -0.040640
			 0.028694 -0.005289 -0.040344
			 0.026424 -0.003002 -0.041328
			 0.026109 -0.002156 -0.039771
			 0.026409 -0.003258 -0.039435
			 0.031821 -0.004226 -0.039776
			 0.027127 -0.005864 -0.039717
			 0.030457 -0.005079 -0.040773
			 0.026200 -0.005578 -0.039462
			 0.032093 -0.004249 -0.042605
			 0.031028 -0.004940 -0.041990
			 0.030349 -0.004684 -0.041226
			 0.025959 -0.004847 -0.040498
			 0.030798 -0.005200 -0.041263
			 0.031479 -0.004855 -0.042211
		</DataArray>
	</Points>
			<Polys>
				<DataArray type="Int32" Name="connectivity" format="ascii">
					0 1 2 
					2 3 0 
					4 1 0 
					0 3 5 
					5 4 0 
					1 6 2 
					1 4 7 
					8 9 1 
					10 8 1 
					1 9 11 
					1 7 10 
					1 12 6 
					1 11 13 
					13 12 1 
					2 6 14 
					14 15 2 
					16 2 15 
					16 3 2 
					3 17 18 
					3 19 17 
					20 3 18 
					3 20 5 
					19 3 16 
					4 21 7 
					4 5 22 
					4 22 23 
					21 4 23 
					5 24 22 
					5 25 24 
					25 5 20 
					26 6 12 
					6 26 14 
					8 10 7 
					8 7 9 
					7 27 9 
					27 7 21 
					27 11 9 
					11 28 13 
					28 11 29 
					27 29 11 
					12 13 28 
					12 28 29 
					30 12 29 
					30 26 12 
					26 31 14 
					14 32 33 
					14 34 15 
					34 14 33 
					32 14 31 
					35 15 34 
					15 20 16 
					20 15 35 
					17 19 16 
					18 16 20 
					17 16 18 
					24 25 20 
					24 20 35 
					23 36 21 
					21 36 27 
					23 22 32 
					22 37 32 
					24 37 22 
					31 23 32 
					38 23 31 
					23 38 36 
					39 24 35 
					24 39 37 
					31 26 30 
					29 27 36 
					29 36 40 
					40 41 29 
					29 41 30 
					42 31 30 
					30 41 42 
					38 31 42 
					32 43 33 
					32 37 43 
					35 33 43 
					35 34 33 
					43 39 35 
					38 44 36 
					36 44 45 
					40 36 45 
					37 39 43 
					44 38 42 
					40 45 41 
					44 42 41 
					44 41 45 
				</DataArray>
				<DataArray type="Int32" Name="offsets" format="ascii">
					3 6 9 12 15 18 21 24 27 30 33 36 39 42 45 48 51 54 57 60 63 66 69 72 75 78 81 84 87 90 93 96 99 102 105 108 111 114 117 120 123 126 129 132 135 138 141 144 147 150 153 156 159 162 165 168 171 174 177 180 183 186 189 192 195 198 201 204 207 210 213 216 219 222 225 228 231 234 237 240 243 246 249 252 255 258 261 264 
				</DataArray>
			</Polys>
		</Piece>
	</PolyData>
</VTKFile>
