<?xml version="1.0"?>
<VTKFile type="PolyData" version="0.1" byte_order="LittleEndian" compressor="vtkZLibDataCompressor">
	<PolyData>
		<Piece NumberOfPoints="2576" NumberOfVerts="0" NumberOfLines="0" NumberOfStrips="0" NumberOfPolys="5190">
		<PointData Normals="Normals">
		<DataArray type="Float32" Name="Normals" NumberOfComponents="3" format="ascii">
			-0.411254 -0.245126 -0.877943
			-0.617606  0.129848 -0.775694
			-0.267779 -0.205108 -0.941395
			-0.539887 -0.344306 -0.768099
			-0.390616 -0.353669 -0.849904
			-0.635429  0.481665 -0.603514
			-0.397233  0.594120 -0.699448
			-0.703239 -0.308891 -0.640344
			-0.818523 -0.277909 -0.502779
			-0.825792 -0.285293 -0.486493
			-0.814372 -0.001434 -0.580341
			-0.722763  0.337678 -0.602982
			-0.587464  0.480249 -0.651343
			-0.474168  0.471487 -0.743548
			-0.463674 -0.009687 -0.885953
			-0.171861 -0.234916 -0.956702
			-0.242447 -0.290097 -0.925777
			-0.336536 -0.300214 -0.892533
			-0.376656 -0.304848 -0.874756
			-0.494769 -0.104263 -0.862747
			-0.679825  0.222776 -0.698719
			-0.486957  0.701200 -0.520761
			-0.647045  0.590316 -0.482555
			-0.789160  0.315796 -0.526782
			-0.563797  0.069651 -0.822971
			-0.685535  0.253967 -0.682307
			-0.440449  0.379694 -0.813534
			-0.797028  0.521302 -0.304944
			-0.813175  0.479305 -0.330170
			-0.781535  0.447477 -0.434704
			-0.811664  0.368758 -0.453011
			-0.740993  0.167593 -0.650263
			-0.499958  0.496862 -0.709345
			-0.327535  0.661484 -0.674655
			-0.518239  0.541126 -0.662278
			-0.843882 -0.245380 -0.477129
			-0.814820 -0.115804 -0.568030
			-0.845591 -0.279911 -0.454562
			-0.807102 -0.387702 -0.445279
			-0.785125 -0.348846 -0.511747
			-0.800477 -0.218690 -0.558043
			-0.641745 -0.007462 -0.766882
			-0.432718  0.127913 -0.892409
			-0.640330  0.029048 -0.767550
			-0.494873 -0.142158 -0.857258
			-0.496998 -0.151505 -0.854423
			-0.495813 -0.124539 -0.859453
			-0.351831 -0.173914 -0.919766
			-0.284875 -0.248821 -0.925708
			-0.439107 -0.183927 -0.879407
			-0.699573  0.205385 -0.684408
			-0.734309  0.366826 -0.571165
			-0.474264  0.557836 -0.681096
			-0.748983  0.021674 -0.662234
			-0.676733  0.026238 -0.735760
			-0.683739  0.150413 -0.714056
			-0.707532  0.675506 -0.207583
			-0.840904  0.526488 -0.125263
			-0.395869 -0.152617 -0.905536
			-0.403479 -0.306359 -0.862177
			-0.434051 -0.003464 -0.900882
			-0.780960  0.514192 -0.354554
			-0.653559  0.333861 -0.679263
			-0.418408  0.147767 -0.896158
			-0.350368  0.431538 -0.831274
			-0.274713  0.075898 -0.958526
			-0.358471 -0.237778 -0.902751
			-0.714551  0.483680 -0.505440
			-0.773385  0.387944 -0.501374
			-0.813949  0.319550 -0.485154
			-0.588595  0.476044 -0.653405
			-0.819885  0.359056 -0.445945
			-0.798940  0.149298 -0.582585
			-0.354982  0.097979 -0.929725
			-0.865929 -0.178630 -0.467181
			-0.896069  0.170328 -0.409937
			-0.893175 -0.103704 -0.437588
			-0.794175 -0.284572 -0.536940
			-0.827631 -0.232790 -0.510722
			-0.590779 -0.222314 -0.775601
			-0.232845 -0.064579 -0.970367
			-0.214004 -0.072275 -0.974155
			-0.044975 -0.097711 -0.994198
			-0.807956  0.098393 -0.580970
			-0.717017  0.096354 -0.690365
			-0.509356 -0.136159 -0.849716
			-0.487166 -0.132075 -0.863264
			-0.845529  0.503089 -0.178839
			-0.673194  0.707806 -0.214056
			-0.639334  0.340715 -0.689322
			-0.820311  0.566944  0.075267
			-0.441007  0.897128  0.025969
			-0.665666  0.139823 -0.733034
			-0.668753  0.128132 -0.732360
			-0.578953  0.118667 -0.806680
			-0.662868  0.015360 -0.748579
			-0.856711  0.323265 -0.401929
			-0.660612  0.646865  0.380996
			-0.214115  0.749259  0.626711
			-0.156961  0.735784  0.658776
			-0.569005  0.204111  0.796601
			-0.871711  0.234996  0.429997
			-0.334651 -0.038079 -0.941573
			-0.352924 -0.161793 -0.921557
			-0.385223 -0.278814 -0.879696
			-0.551893  0.333049 -0.764521
			-0.244693  0.036187 -0.968925
			-0.311526 -0.010007 -0.950185
			-0.463409  0.178166 -0.868049
			-0.194834  0.080845 -0.977499
			-0.553309  0.334415 -0.762900
			-0.158103 -0.093618 -0.982975
			-0.298461 -0.152262 -0.942198
			-0.573559 -0.184868 -0.798031
			-0.631406  0.475837 -0.612295
			-0.524429  0.314775 -0.791133
			-0.563953 -0.009178 -0.825756
			-0.649780  0.198066 -0.733864
			-0.141689 -0.180713 -0.973276
			-0.808261  0.139289 -0.572113
			-0.453422  0.608097 -0.651634
			-0.891027 -0.024274 -0.453301
			-0.805076 -0.216173 -0.552379
			-0.522331 -0.237965 -0.818867
			-0.247949 -0.162509 -0.955045
			-0.215823 -0.061632 -0.974485
			 0.745951 -0.135019 -0.652171
			 0.281683 -0.363771 -0.887877
			-0.125636  0.024749 -0.991768
			 0.283681 -0.061224 -0.956962
			-0.862217  0.457103 -0.218261
			-0.614601  0.677248  0.404477
			-0.695532  0.331055 -0.637682
			-0.910502  0.311657 -0.271765
			-0.991911  0.111656 -0.060380
			-0.089108  0.482278 -0.871475
			 0.306981  0.785582 -0.537236
			 0.285349  0.246456 -0.926194
			-0.989832 -0.042233  0.135829
			-0.604811  0.122207  0.786936
			-0.280067  0.590136  0.757167
			-0.981214  0.190548 -0.030172
			-0.900090  0.169896  0.401214
			-0.355602  0.796454  0.489088
			 0.297172  0.802648  0.517150
			-0.588420  0.562456  0.580865
			 0.238725  0.136016  0.961515
			-0.148976 -0.074410  0.986037
			-0.526976 -0.414737  0.741815
			-0.663745  0.149330  0.732900
			-0.600463  0.655644  0.457794
			-0.720833  0.365384  0.588977
			-0.305075 -0.091338 -0.947938
			-0.127374 -0.061602 -0.989940
			-0.131818 -0.154695 -0.979129
			-0.078688 -0.283520 -0.955732
			-0.081422 -0.315826 -0.945317
			-0.122054 -0.125451 -0.984563
			-0.182172 -0.145152 -0.972494
			-0.168836 -0.157044 -0.973053
			-0.150531 -0.239147 -0.959244
			-0.298249 -0.155033 -0.941813
			-0.921205  0.122968 -0.369134
			-0.775802  0.287382 -0.561732
			-0.532294  0.174340 -0.828414
			-0.666165 -0.139749 -0.732594
			-0.856286 -0.176017 -0.485585
			-0.691531  0.052054 -0.720468
			-0.094950 -0.396099 -0.913285
			-0.075776 -0.347740 -0.934524
			-0.060030 -0.303336 -0.950991
			-0.441881  0.073791 -0.894034
			-0.740541 -0.055373 -0.669726
			 0.092066  0.526214 -0.845354
			-0.137846  0.839555 -0.525495
			-0.210631 -0.173111 -0.962116
			-0.232932 -0.215615 -0.948290
			 0.079086 -0.086568 -0.993102
			-0.083343  0.028335 -0.996118
			 0.993673 -0.101609 -0.047838
			 0.885615 -0.205752 -0.416356
			 0.979642 -0.199739 -0.020145
			 0.720725 -0.240202 -0.650275
			 0.181995 -0.641671 -0.745075
			-0.028564 -0.462347 -0.886239
			 0.254541 -0.622492 -0.740076
			 0.747268 -0.603900 -0.277300
			 0.974055 -0.226227  0.006255
			 0.244521 -0.067641 -0.967282
			 0.589924 -0.186664 -0.785586
			-0.340798  0.781868  0.522052
			-0.263478  0.608624  0.748436
			-0.438506  0.749996 -0.495196
			-0.819095  0.546882 -0.173212
			-0.874691  0.472275  0.108960
			-0.837819  0.508244  0.199369
			-0.887074  0.457949  0.058154
			-0.902794  0.226503  0.365595
			 0.319720  0.510683 -0.798112
			 0.340521  0.506228 -0.792325
			 0.148529  0.693475 -0.705005
			 0.680854  0.332192 -0.652753
			 0.677500  0.051812 -0.733696
			 0.518679  0.800081 -0.301401
			 0.228663  0.895628 -0.381528
			 0.392872  0.909771 -0.134045
			 0.528941  0.317341 -0.787093
			-0.970515  0.240962 -0.006196
			-0.876596  0.222069  0.426924
			 0.017832 -0.194559  0.980729
			-0.127110  0.414077  0.901323
			-0.572415 -0.400038  0.715759
			-0.202223  0.639924  0.741352
			-0.172751  0.587703  0.790419
			-0.311581  0.612525  0.726451
			-0.275446  0.598386  0.752372
			-0.877862  0.164266  0.449860
			-0.101784 -0.290169  0.951547
			-0.807773 -0.492276  0.324296
			-0.806961 -0.247007  0.536471
			-0.525577  0.444097  0.725635
			-0.662111  0.178691  0.727790
			-0.038129  0.867577  0.495839
			 0.589144  0.803462 -0.085784
			 0.709148  0.702842  0.055879
			 0.679137  0.364611  0.637049
			-0.402592  0.519399  0.753753
			 0.507286  0.013588  0.861671
			 0.093990 -0.672025  0.734540
			 0.301248 -0.116699  0.946378
			-0.119158 -0.596666  0.793594
			-0.438893 -0.777888  0.449738
			-0.721354 -0.502356  0.476746
			-0.727058  0.135227  0.673127
			-0.762934  0.614553  0.200641
			-0.536596  0.503150  0.677425
			-0.645459  0.337929  0.684972
			-0.346438  0.592991  0.726872
			-0.692090  0.570674  0.441976
			-0.575703  0.798148  0.177556
			-0.215648 -0.060859 -0.974573
			-0.127069 -0.131903 -0.983085
			 0.022972 -0.194312 -0.980671
			 0.320409 -0.852445 -0.413129
			 0.568314 -0.804440 -0.172901
			 0.533846 -0.798185 -0.279122
			 0.246929 -0.632348 -0.734277
			-0.979106 -0.177814 -0.098654
			-0.431026 -0.354228 -0.829903
			-0.899105 -0.300003 -0.318761
			-0.724810 -0.215720 -0.654305
			-0.681898 -0.245409 -0.689050
			-0.637686 -0.316790 -0.702140
			-0.947532 -0.129973 -0.292046
			-0.832208 -0.078850 -0.548828
			-0.008069 -0.561836 -0.827209
			 0.414196 -0.909870 -0.024053
			 0.464237  0.332117 -0.821086
			 0.687750  0.680497 -0.252831
			-0.002411 -0.153179 -0.988196
			 0.107843 -0.038109 -0.993437
			 0.667801 -0.052776 -0.742466
			 0.863981  0.195985 -0.463818
			 0.954846 -0.102337  0.278921
			 0.914249 -0.315527 -0.254151
			 0.942139 -0.088341  0.323374
			 0.914898 -0.182855  0.359898
			 0.549966 -0.830304 -0.090182
			 0.594129 -0.787187  0.165370
			 0.753549 -0.333562  0.566480
			 0.896583 -0.181458  0.403994
			 0.961635 -0.224622 -0.157490
			-0.481971  0.792858  0.372934
			-0.310672  0.720633  0.619815
			-0.359266  0.925577 -0.119309
			 0.349451  0.811183 -0.468898
			-0.561259  0.714126  0.418346
			-0.478541  0.869721  0.120759
			-0.840887  0.508338  0.185745
			 0.696508  0.360534 -0.620397
			 0.744317  0.047259 -0.666152
			 0.742362  0.208363 -0.636776
			 0.739891  0.363344 -0.566165
			 0.805072  0.525695 -0.274779
			 0.743012  0.056758 -0.666867
			 0.631635  0.757464 -0.165186
			-0.744398  0.649550  0.154777
			-0.490758  0.304200  0.816467
			-0.467741  0.623061  0.626908
			-0.752118  0.211455  0.624183
			 0.031508  0.567588  0.822709
			 0.331871  0.289451  0.897820
			-0.266258 -0.715181  0.646237
			 0.038329 -0.882212  0.469290
			 0.267320 -0.401271  0.876083
			 0.589697  0.194079  0.783959
			-0.414438 -0.862011  0.291853
			-0.746646 -0.592526  0.302378
			-0.120311  0.656236  0.744902
			-0.178209  0.835314  0.520089
			-0.292373  0.777909  0.556216
			-0.598871  0.526534  0.603420
			 0.154373  0.457369  0.875776
			-0.999246  0.015811 -0.035462
			 0.606905  0.297679  0.736922
			 0.640365  0.000163  0.768071
			 0.418955 -0.490817  0.763921
			-0.194467 -0.976073  0.097289
			-0.987255 -0.141183 -0.073451
			-0.911078  0.311075  0.270496
			-0.444324  0.480727  0.755961
			-0.421208  0.563600  0.710590
			-0.391562  0.530616  0.751748
			-0.789973  0.497472  0.358418
			-0.282882  0.532003  0.798092
			 0.431528  0.817341 -0.381754
			 0.109871  0.974361  0.196337
			 0.558017  0.526940 -0.641055
			 0.833851  0.550490 -0.040660
			 0.713841  0.563887  0.415286
			 0.598187  0.185399  0.779615
			-0.044619 -0.959131  0.279424
			-0.311798 -0.908230  0.279104
			 0.188139 -0.747139  0.637486
			 0.378512 -0.606439  0.699257
			 0.766525 -0.263434  0.585697
			 0.712273  0.030722  0.701230
			 0.070402 -0.875232  0.478553
			 0.709855  0.301979  0.636329
			-0.653366 -0.749139 -0.109108
			-0.775414 -0.568830 -0.274164
			-0.878194  0.422333  0.224524
			-0.926124 -0.050256 -0.373857
			-0.811909  0.389174  0.435140
			-0.745849  0.615309 -0.255153
			-0.783741  0.616218  0.077623
			-0.277854  0.864124  0.419627
			-0.171512  0.939866  0.295357
			-0.616115  0.593817  0.517478
			 0.292055 -0.728785  0.619335
			 0.299211 -0.826853  0.476221
			 0.723291 -0.562581  0.400440
			 0.859947 -0.411938  0.301328
			 0.787298 -0.027349  0.615966
			 0.376472 -0.637772  0.671949
			 0.575699 -0.396951  0.714843
			 0.496559 -0.702490 -0.509840
			 0.807941 -0.588916  0.020224
			-0.980596 -0.096567 -0.170604
			-0.688169 -0.206721 -0.695478
			-0.265814 -0.435932 -0.859829
			-0.625400 -0.132839 -0.768914
			-0.642348 -0.252360 -0.723674
			-0.966473  0.148188 -0.209689
			-0.898230  0.360540 -0.251385
			-0.736503  0.079374 -0.671761
			 0.271612 -0.837257  0.474581
			 0.595801 -0.600351  0.533479
			 0.732400 -0.477810  0.485065
			 0.636296 -0.595248  0.490721
			 0.455934 -0.748262  0.481900
			 0.873037  0.467568 -0.138513
			 0.792848  0.587773 -0.160981
			 0.991981 -0.111330  0.059828
			 0.998047  0.052296  0.034172
			 0.934104  0.356889 -0.008943
			 0.971828  0.227680  0.060934
			 0.986527  0.130859  0.098186
			 0.972628  0.066763  0.222571
			 0.928605 -0.107571  0.355136
			 0.951472 -0.042627  0.304769
			 0.953999 -0.182728  0.237691
			 0.938307 -0.090543  0.333740
			 0.901547 -0.144540  0.407825
			 0.173980  0.972391  0.155522
			 0.727751  0.611772 -0.310021
			-0.351865  0.761197  0.544767
			-0.340558  0.717559  0.607560
			-0.326349  0.713849  0.619609
			-0.320260  0.863425  0.389783
			 0.785429  0.231770 -0.573920
			 0.780491  0.259002 -0.568992
			 0.750431  0.281346 -0.598078
			 0.740794  0.270285 -0.614956
			 0.937171  0.137516 -0.320624
			 0.938829  0.336560 -0.072981
			-0.420329  0.471623  0.775175
			-0.359449  0.649629  0.669909
			-0.970569 -0.099833 -0.219157
			-0.859828  0.407430  0.307728
			-0.667687  0.485598  0.564259
			 0.024283  0.880696  0.473060
			 0.438146  0.840161  0.319622
			 0.448503  0.538789  0.713128
			 0.332341 -0.533265  0.777932
			 0.165495 -0.960025 -0.225750
			-0.057280 -0.975142 -0.214049
			 0.421906 -0.905000 -0.054491
			 0.426522 -0.774467  0.467204
			-0.333900 -0.930069 -0.153238
			 0.770787 -0.016464  0.636881
			 0.704551  0.528635  0.473448
			 0.657117  0.580493  0.480859
			-0.486483 -0.855193 -0.178828
			-0.664128 -0.596768 -0.450335
			 0.041320  0.987983  0.148936
			 0.277785  0.791367  0.544586
			-0.068422  0.963557  0.258605
			-0.927502  0.325734  0.183404
			 0.583893  0.683554  0.437976
			-0.978746  0.129714 -0.158843
			-0.962737  0.130533 -0.236850
			-0.942775  0.326382 -0.068196
			-0.927058  0.231872 -0.294618
			-0.962993  0.198508 -0.182317
			 0.750118  0.275751  0.601069
			 0.804286  0.576109  0.145678
			 0.651533  0.039972  0.757566
			 0.328628 -0.690604  0.644259
			 0.082139 -0.916451  0.391625
			 0.564430 -0.280200  0.776470
			 0.428026 -0.880187 -0.205096
			 0.394789 -0.881741  0.258215
			-0.143354 -0.394070 -0.907832
			-0.767087  0.635600 -0.087122
			-0.602699  0.769486 -0.211292
			-0.893620  0.448756 -0.007864
			-0.883502  0.467337 -0.031941
			-0.737298  0.582297  0.342523
			-0.495823  0.842646 -0.210017
			-0.370188  0.682081  0.630655
			-0.871299  0.476012 -0.119379
			 0.262477  0.724272 -0.637602
			 0.067795  0.104171 -0.992246
			 0.290482 -0.411248 -0.864000
			 0.799780 -0.068270 -0.596398
			 0.988926  0.114788  0.094069
			 0.274759 -0.891962  0.359042
			-0.147320 -0.988004  0.046314
			-0.375317 -0.913547 -0.156745
			 0.218137 -0.750677  0.623619
			 0.904157  0.106510  0.413709
			 0.880782 -0.026359  0.472788
			-0.408769 -0.715417 -0.566645
			-0.451705 -0.450143 -0.770281
			-0.872193  0.320850  0.369234
			-0.849024  0.520470 -0.090931
			-0.806018  0.572051 -0.151966
			-0.596731  0.786437 -0.159466
			-0.712648  0.666770 -0.218061
			-0.736376  0.649675 -0.188871
			-0.520606  0.672891 -0.525534
			-0.426032  0.156295 -0.891105
			-0.741981  0.570268  0.352503
			-0.632844  0.774069 -0.018027
			-0.450297  0.877276  0.166191
			 0.095069  0.994738 -0.038178
			 0.190087  0.981751  0.005589
			 0.168176  0.975156  0.144176
			 0.876814 -0.246598  0.412779
			 0.960677 -0.080238  0.265821
			 0.861954 -0.500450  0.081154
			 0.654577  0.056805  0.753858
			 0.902337  0.181812  0.390810
			 0.879587 -0.469444  0.077126
			 0.714723 -0.541331 -0.442869
			-0.561199 -0.246357 -0.790167
			 0.935232 -0.290435 -0.202456
			 0.520373 -0.186469 -0.833331
			-0.535236 -0.097353 -0.839074
			-0.555695 -0.108135 -0.824324
			-0.946500  0.205300 -0.248975
			-0.969838  0.236179  0.060281
			-0.845410  0.285613 -0.451339
			-0.898704  0.427765 -0.096686
			-0.926666  0.322158 -0.193659
			-0.717551  0.049404 -0.694752
			 0.334941 -0.823834  0.457289
			 0.740866 -0.597174  0.307410
			 0.470141 -0.687544  0.553400
			 0.954244  0.297115  0.033783
			 0.924316 -0.114603  0.364015
			 0.977434 -0.060960  0.202252
			 0.983238  0.175992 -0.047648
			 0.951762  0.024935  0.305822
			 0.914583 -0.044195  0.401976
			 0.913376 -0.393668  0.103774
			 0.997444  0.031991  0.063896
			 0.252385  0.899521  0.356601
			-0.101398  0.813131  0.573180
			 0.698662  0.307190 -0.646147
			 0.626481  0.673825 -0.391766
			 0.336905  0.931855  0.134690
			 0.751836  0.308238 -0.582866
			-0.235930  0.804338  0.545324
			-0.248575  0.738060  0.627278
			 0.625059  0.337073 -0.704048
			 0.576545 -0.076592 -0.813468
			 0.788940 -0.071799 -0.610261
			 0.882427 -0.205148 -0.423364
			 0.985816 -0.114112 -0.123065
			-0.390462  0.509204  0.766975
			-0.437943  0.524682  0.730010
			-0.231112  0.800001  0.553701
			-0.719602  0.568727 -0.398402
			-0.632926 -0.019101 -0.773977
			-0.661086  0.748490  0.052228
			-0.433915  0.562585  0.703716
			-0.725579  0.612555  0.313548
			-0.826555  0.539305  0.161113
			-0.882456  0.400444  0.246810
			-0.695872  0.715248  0.064663
			-0.849155  0.521232  0.085161
			 0.553472  0.809774 -0.194772
			 0.640183  0.766659 -0.048981
			 0.346230  0.929159  0.129571
			 0.454271  0.890667 -0.018698
			 0.678371 -0.489598  0.547819
			 0.203531 -0.845080 -0.494384
			-0.134406 -0.816758 -0.561108
			 0.685749 -0.656278 -0.314719
			 0.862628 -0.497964  0.088905
			 0.733739  0.525993  0.430068
			 0.913988  0.388692  0.116384
			 0.908937 -0.320627  0.266517
			 0.722372  0.662708  0.197477
			-0.210413 -0.453495 -0.866065
			 0.523903  0.849668 -0.059919
			-0.622121  0.773637  0.120211
			 0.302250  0.869299 -0.391106
			 0.026856  0.998385 -0.050064
			-0.902826  0.224884 -0.366513
			-0.649195  0.680220 -0.340362
			-0.755878  0.636966 -0.151402
			-0.963101  0.239342  0.123095
			 0.930717  0.300232  0.208869
			 0.938472  0.252983  0.235097
			 0.441225  0.614097 -0.654374
			 0.969194  0.172416 -0.175884
			 0.985631  0.074204  0.151740
			 0.995112  0.094681  0.028083
			 0.349988 -0.698428 -0.624265
			 0.698374 -0.683200 -0.213335
			 0.864326 -0.502893  0.006246
			 0.438679 -0.340026 -0.831831
			 0.306397  0.119093 -0.944424
			-0.241901  0.640827 -0.728577
			-0.713579  0.598826  0.363610
			-0.546900  0.709804  0.443936
			-0.753029  0.657988  0.000096
			-0.868113  0.480520  0.124420
			-0.868891  0.368493 -0.330518
			-0.751143  0.452255 -0.480885
			-0.896068  0.354357 -0.267381
			-0.812029  0.420385  0.404828
			-0.715786  0.602051 -0.353813
			-0.816168  0.564329 -0.124112
			-0.632091  0.758936 -0.156449
			-0.476549  0.843964 -0.246223
			-0.275346  0.194536 -0.941456
			-0.071418 -0.175033 -0.981969
			 0.592069 -0.776705 -0.214903
			-0.124344 -0.291686 -0.948398
			 0.232231 -0.807099 -0.542826
			 0.458876 -0.879942  0.123022
			 0.529216 -0.844377  0.083408
			-0.030079 -0.999012 -0.032709
			 0.214022 -0.973435  0.081357
			 0.370838 -0.920582  0.122510
			-0.139582 -0.943920 -0.299218
			-0.750038  0.595673  0.287430
			-0.855256  0.518162 -0.006800
			-0.873578  0.462377  0.151889
			-0.776496  0.630068 -0.008257
			-0.583766  0.772520 -0.249861
			-0.663684  0.712693 -0.227138
			-0.351438  0.935974 -0.021096
			 0.124701  0.944517 -0.303870
			-0.102282  0.963366 -0.247921
			 0.314600  0.947691 -0.053925
			 0.960603 -0.239269  0.141392
			 0.820380 -0.484372  0.303908
			 0.938152 -0.274905  0.210474
			-0.640231 -0.213604 -0.737887
			-0.510913 -0.376203 -0.772942
			 0.888535 -0.111392  0.445081
			 0.848275  0.230979  0.476527
			-0.304681 -0.388459 -0.869637
			-0.612744 -0.369146 -0.698768
			 0.857578  0.347448  0.379261
			 0.859895  0.355905  0.365939
			 0.973026 -0.002323 -0.230683
			-0.808987  0.015949 -0.587611
			-0.973720 -0.205117 -0.098979
			-0.995730 -0.059940  0.070213
			-0.933280 -0.150093  0.326284
			-0.853901 -0.200762  0.480153
			 0.701760 -0.703859  0.110072
			 0.798892 -0.573719  0.180605
			 0.884181 -0.465478 -0.039413
			 0.911148  0.250326 -0.327332
			 0.973178  0.130470 -0.189478
			-0.038547  0.805037  0.591971
			 0.608618  0.758743 -0.232150
			 0.637629  0.607326 -0.473903
			 0.513556  0.857719 -0.024056
			 0.603187  0.342829 -0.720163
			-0.300154  0.792976  0.530185
			-0.610693  0.782760  0.119755
			 0.467608  0.882887  0.043053
			-0.540057  0.823622  0.173163
			 0.423853 -0.422902 -0.800939
			 0.454026 -0.556101 -0.696141
			 0.733160 -0.258527 -0.628999
			 0.573000 -0.015653 -0.819406
			 0.704911 -0.476660 -0.525258
			 0.901509 -0.293884 -0.317669
			-0.417620  0.612228  0.671394
			-0.354941  0.782193 -0.512046
			-0.403725  0.787168 -0.466233
			-0.318646  0.720754 -0.615612
			-0.302998  0.379150 -0.874321
			-0.441944  0.844089 -0.303644
			-0.805557  0.584933 -0.094502
			-0.815248  0.531022  0.231054
			-0.793684  0.602421 -0.084586
			-0.865689  0.500255 -0.018118
			-0.895567  0.296235  0.331969
			-0.951897  0.305654  0.021612
			-0.952121  0.262717  0.156351
			-0.671469  0.740998  0.007232
			 0.495518  0.791960 -0.356737
			 0.636697  0.686009 -0.352149
			 0.245979  0.871579 -0.424081
			 0.364394 -0.519636 -0.772785
			 0.426224 -0.713784 -0.555739
			 0.831236  0.356989 -0.426152
			 0.309705  0.118755 -0.943388
			 0.125298  0.454438 -0.881922
			-0.064622  0.677068 -0.733078
			-0.828445 -0.001218 -0.560068
			-0.981872  0.184782  0.042234
			-0.718367  0.207039  0.664141
			-0.563401  0.428281  0.706509
			-0.721503 -0.689946  0.058374
			-0.818250 -0.187868 -0.543297
			 0.968740  0.125611  0.213926
			 0.672040  0.169383 -0.720883
			 0.751359 -0.659742 -0.014176
			 0.990953 -0.116264 -0.067041
			 0.954787  0.013231 -0.296995
			 0.685256 -0.542891 -0.485484
			 0.794849 -0.597237 -0.107342
			 0.838315 -0.511270 -0.189294
			 0.725527 -0.686564 -0.047335
			 0.802055 -0.306091 -0.512851
			-0.805509  0.580856  0.117313
			-0.596541  0.800319 -0.060231
			-0.631670  0.759263  0.156566
			-0.479976  0.843052  0.242667
			-0.539372  0.834959  0.109183
			-0.459990  0.493076 -0.738435
			-0.938508  0.341647 -0.049803
			-0.834900 -0.317549 -0.449560
			-0.700176  0.271660 -0.660268
			-0.867264 -0.204183 -0.454051
			-0.568699  0.433060 -0.699314
			-0.962588  0.246939 -0.111561
			-0.999487 -0.021605 -0.023654
			-0.682288  0.139955 -0.717562
			-0.968381  0.213666 -0.128780
			-0.509175  0.626614 -0.589996
			-0.520232  0.804677 -0.286102
			 0.469379 -0.880037 -0.072236
			 0.497888 -0.865011 -0.062160
			 0.807268 -0.590066  0.011871
			 0.484473 -0.874355  0.028093
			 0.707901 -0.678117  0.197570
			 0.332572 -0.930234 -0.155114
			 0.536162 -0.840546 -0.077544
			 0.459706 -0.888069 -0.001831
			 0.567526 -0.822911 -0.027064
			-0.638728  0.767896 -0.048611
			-0.893113  0.446714 -0.052879
			-0.825371  0.558020  0.085881
			-0.855478  0.517095 -0.027771
			-0.828835  0.539936  0.146636
			-0.780965  0.601179  0.169342
			-0.608425  0.791434 -0.058753
			-0.658544  0.719007  0.222145
			-0.748994  0.638295  0.177727
			-0.822158  0.552111  0.138670
			 0.786625 -0.107398  0.608019
			 0.670216 -0.434884  0.601403
			-0.828679 -0.244517 -0.503491
			-0.767548 -0.428929 -0.476330
			 0.792437  0.079017  0.604813
			 0.810015  0.219470  0.543791
			 0.802447  0.425556  0.418307
			 0.836891  0.390332  0.383736
			-0.776450 -0.472318 -0.417183
			-0.367803 -0.597562 -0.712489
			-0.649090 -0.499370 -0.573856
			-0.758443 -0.526194 -0.384558
			 0.968554  0.053459  0.242994
			 0.918504  0.355121  0.173896
			 0.860881  0.291941  0.416719
			 0.831591  0.254755  0.493515
			 0.881969 -0.024422  0.470674
			 0.762304  0.351050  0.543743
			 0.912543 -0.158512 -0.377014
			-0.864987 -0.363453 -0.345977
			-0.995089 -0.079143  0.059457
			-0.967681 -0.246401 -0.053659
			-0.923748 -0.371433 -0.093418
			-0.951146 -0.298735  0.077970
			-0.546167  0.226199  0.806558
			 0.126759  0.090187  0.987825
			 0.062163 -0.315106  0.947019
			-0.072995 -0.617146  0.783456
			 0.646832 -0.731342 -0.216210
			 0.499356 -0.856976 -0.127420
			 0.869274 -0.064701 -0.490078
			 0.627247  0.750464 -0.208241
			 0.696213  0.544949 -0.467245
			 0.464991  0.885085  0.020206
			 0.485889  0.873840 -0.017737
			 0.681786  0.682315 -0.263845
			 0.456781  0.889234  0.024771
			 0.452275  0.891850  0.007177
			-0.980464  0.185519  0.065366
			-0.823687  0.566968 -0.009354
			 0.667617 -0.070697 -0.741140
			 0.528437 -0.515807 -0.674313
			 0.637000 -0.620896 -0.456858
			 0.330661 -0.705777 -0.626532
			-0.567177  0.775843 -0.276365
			-0.587156  0.797912 -0.136328
			-0.857529  0.514435  0.000570
			-0.787747  0.610116  0.084927
			-0.401062  0.806016  0.435301
			-0.721296  0.688352 -0.076834
			-0.760439  0.637144  0.125621
			-0.793076  0.609123 -0.000086
			-0.760515  0.637045 -0.125659
			-0.587449  0.803248  0.098466
			-0.842506  0.510787 -0.171112
			 0.601620  0.475625 -0.641743
			 0.686589 -0.153208 -0.710720
			-0.700977 -0.134026 -0.700478
			-0.801998 -0.070702 -0.593128
			-0.726262 -0.177049 -0.664227
			-0.934291  0.030278 -0.355223
			-0.990373  0.092012 -0.103419
			-0.897666  0.209982  0.387432
			-0.762258  0.046248  0.645619
			-0.555168 -0.131957  0.821204
			 0.231093 -0.950785  0.206406
			-0.442153 -0.714677 -0.541976
			-0.433863 -0.310893 -0.845641
			 0.448787 -0.740654  0.500022
			 0.360766 -0.742951 -0.563801
			 0.373061 -0.763444 -0.527237
			 0.926810 -0.355821 -0.120057
			 0.678939 -0.669560 -0.301217
			 0.914067 -0.378001 -0.146956
			 0.843270 -0.473074 -0.255141
			 0.836332 -0.546239 -0.046612
			 0.883263 -0.460816 -0.086571
			 0.855862 -0.493154 -0.155882
			 0.884495 -0.430457 -0.179933
			-0.539255  0.837230  0.090830
			-0.566775  0.810389  0.148445
			-0.590348  0.770485  0.240506
			-0.520703  0.672936  0.525382
			-0.420772  0.222256  0.879519
			 0.302928  0.773812  0.556282
			-0.312308  0.303869  0.900071
			 0.289757  0.950946 -0.108360
			-0.292357  0.719459 -0.630005
			-0.384405  0.535949 -0.751659
			-0.443239  0.513103 -0.735027
			-0.693366  0.035768  0.719698
			-0.825347 -0.564625  0.001101
			-0.664930  0.695573  0.272114
			-0.740286 -0.628914 -0.237579
			-0.916991  0.200431 -0.344899
			-0.642258  0.554674 -0.529000
			-0.913333 -0.191460 -0.359395
			-0.970838  0.078516 -0.226517
			-0.908816 -0.095153 -0.406202
			-0.903239  0.223845  0.366131
			-0.899533  0.255186  0.354572
			-0.828363 -0.001138  0.560191
			-0.715009 -0.696069 -0.065193
			-0.818267 -0.187789  0.543299
			-0.958141 -0.286296 -0.000788
			-0.582717 -0.130013 -0.802208
			-0.748901 -0.172721 -0.639778
			-0.988309 -0.010319 -0.152115
			-0.895760  0.195124 -0.399426
			-0.985043 -0.022538  0.170830
			-0.935558 -0.006783  0.353108
			 0.511864 -0.859049  0.005457
			 0.543043 -0.839542 -0.016563
			 0.908858 -0.416978 -0.010299
			 0.788928 -0.606964  0.095851
			 0.893736 -0.447457  0.031912
			 0.910134 -0.414218  0.008876
			 0.278461 -0.872677  0.401116
			 0.387292 -0.811850  0.436927
			 0.487640 -0.871789 -0.046809
			 0.522736 -0.851563 -0.039841
			 0.550152 -0.834888 -0.017153
			 0.552700 -0.833365  0.005047
			 0.470222 -0.879684 -0.071047
			 0.546360 -0.833879 -0.078339
			 0.601774 -0.797853 -0.036029
			 0.551138 -0.826225  0.116617
			 0.538878 -0.832509  0.128603
			 0.462593 -0.788142  0.406005
			 0.754072 -0.600475  0.266092
			 0.421691 -0.878674  0.223850
			 0.930188 -0.365601 -0.032963
			 0.995289  0.054019  0.080505
			 0.759375 -0.062634  0.647632
			 0.721174 -0.691930  0.033763
			 0.573783 -0.811026 -0.114062
			 0.507754 -0.859892 -0.052650
			 0.553750 -0.832079 -0.031705
			-0.882348  0.435100 -0.179301
			-0.866263  0.423638 -0.264801
			-0.807208  0.278944 -0.520197
			-0.832027  0.533701 -0.151307
			-0.852874  0.473655 -0.219675
			-0.871421  0.382963 -0.306536
			 0.760083 -0.016048  0.649628
			 0.680157 -0.225845  0.697410
			-0.902974 -0.394510 -0.170295
			-0.821463 -0.476816 -0.312802
			 0.788861  0.160510  0.593241
			 0.816930  0.274666  0.507133
			 0.871693  0.428398  0.237963
			 0.803002  0.417411  0.425388
			 0.814097  0.571663  0.102210
			 0.913386  0.406757  0.016560
			-0.876133 -0.477833 -0.063772
			-0.814761 -0.520466 -0.255499
			-0.846100 -0.421826 -0.325850
			-0.680039 -0.567754 -0.463900
			-0.836747 -0.513146 -0.191142
			-0.868573 -0.351063 -0.349766
			-0.035544 -0.791768 -0.609786
			-0.726122 -0.469880 -0.501956
			 0.667694 -0.744121 -0.021652
			 0.995267 -0.047382 -0.084847
			 0.980571  0.150635 -0.125657
			 0.764610  0.115184  0.634116
			 0.659794 -0.080640  0.747107
			 0.570068 -0.440551  0.693497
			 0.572487  0.729910  0.373484
			 0.749376  0.637209  0.180000
			-0.466553 -0.042550  0.883469
			 0.940970  0.286800 -0.179784
			-0.786317  0.573809 -0.229019
			-0.939064 -0.082112 -0.333790
			-0.973002 -0.230087 -0.018059
			-0.910432 -0.329920 -0.249534
			 0.425831  0.715931  0.553274
			 0.614884  0.524110  0.589259
			 0.495718  0.079688  0.864820