<?xml version="1.0"?>
<VTKFile type="PolyData" version="0.1" byte_order="LittleEndian" compressor="vtkZLibDataCompressor">
	<PolyData>
		<Piece NumberOfPoints="2576" NumberOfVerts="0" NumberOfLines="0" NumberOfStrips="0" NumberOfPolys="5190">
		<PointData Normals="Normals">
		<DataArray type="Float32" Name="Normals" NumberOfComponents="3" format="ascii">
			-0.455855 -0.146331 -0.877943
			-0.572568  0.265451 -0.775694
			-0.307055 -0.139614 -0.941395
			-0.603502 -0.214034 -0.768099
			-0.460163 -0.256735 -0.849904
			-0.510792  0.612260 -0.603514
			-0.253404  0.668250 -0.699448
			-0.754701 -0.142780 -0.640344
			-0.860060 -0.086659 -0.502779
			-0.868804 -0.092218 -0.486493
			-0.793823  0.181796 -0.580341
			-0.628277  0.491610 -0.602982
			-0.464374  0.600091 -0.651343
			-0.355954  0.566068 -0.743548
			-0.453970  0.094865 -0.885953
			-0.220301 -0.190235 -0.956702
			-0.301491 -0.228123 -0.925777
			-0.395444 -0.216815 -0.892533
			-0.435578 -0.212305 -0.874756
			-0.505543  0.009708 -0.862747
			-0.612287  0.369994 -0.698719
			-0.316740  0.792769 -0.520761
			-0.497669  0.720740 -0.482555
			-0.697895  0.485225 -0.526782
			-0.533679  0.194693 -0.822971
			-0.610835  0.401669 -0.682307
			-0.343748  0.469042 -0.813534
			-0.659332  0.687234 -0.304944
			-0.684514  0.649945 -0.330170
			-0.660844  0.611815 -0.434704
			-0.707909  0.541892 -0.453011
			-0.684301  0.329985 -0.650263
			-0.375374  0.596593 -0.709345
			-0.170339  0.718210 -0.674655
			-0.383230  0.643835 -0.662278
			-0.877452 -0.049259 -0.477129
			-0.819986  0.070458 -0.568030
			-0.886884 -0.082520 -0.454562
			-0.873630 -0.196207 -0.445279
			-0.843476 -0.163291 -0.511747
			-0.829155 -0.033017 -0.558043
			-0.626976  0.137091 -0.766882
			-0.392853  0.221975 -0.892409
			-0.617384  0.172346 -0.767550
			-0.514168 -0.027193 -0.857258
			-0.518341 -0.035822 -0.854423
			-0.511120 -0.009814 -0.859453
			-0.381936 -0.090312 -0.919766
			-0.333546 -0.178360 -0.925708
			-0.469227 -0.080435 -0.879407
			-0.635442  0.357491 -0.684408
			-0.632971  0.522607 -0.571165
			-0.336623  0.650225 -0.681096
			-0.724911  0.189603 -0.662234
			-0.653487  0.177797 -0.735760
			-0.632380  0.300366 -0.714056
			-0.537442  0.817353 -0.207583
			-0.700917  0.702157 -0.125263
			-0.420055 -0.059654 -0.905536
			-0.462054 -0.207744 -0.862177
			-0.423706  0.094265 -0.900882
			-0.645276  0.676691 -0.354554
			-0.561706  0.472322 -0.679263
			-0.374444  0.238101 -0.896158
			-0.244313  0.499294 -0.831274
			-0.250599  0.135749 -0.958526
			-0.402772 -0.151045 -0.902751
			-0.587433  0.632023 -0.505440
			-0.666294  0.551975 -0.501374
			-0.721205  0.494459 -0.485154
			-0.466422  0.596248 -0.653405
			-0.718101  0.534288 -0.445945
			-0.744878  0.325194 -0.582585
			-0.323844  0.175321 -0.929725
			-0.883918  0.020740 -0.467181
			-0.834788  0.367534 -0.409937
			-0.893612  0.099875 -0.437588
			-0.837835 -0.098628 -0.536940
			-0.858785 -0.040647 -0.510722
			-0.625647 -0.083720 -0.775601
			-0.241404 -0.010545 -0.970367
			-0.224777 -0.022283 -0.974155
			-0.065802 -0.085089 -0.994198
			-0.765115  0.277621 -0.580970
			-0.676965  0.255178 -0.690365
			-0.526930 -0.018089 -0.849716
			-0.504390 -0.019101 -0.863264
			-0.710687  0.680397 -0.178839
			-0.496719  0.841101 -0.214056
			-0.546304  0.475801 -0.689322
			-0.671751  0.736943  0.075267
			-0.227894  0.973340  0.025969
			-0.617151  0.285982 -0.733034
			-0.622790  0.275284 -0.732360
			-0.537420  0.245862 -0.806680
			-0.642423  0.164079 -0.748579
			-0.762034  0.507698 -0.401929
			-0.498167  0.778891  0.380996
			-0.040081  0.778220  0.626711
			 0.012577  0.752234  0.658776
			-0.508506  0.326878  0.796601
			-0.796506  0.425065  0.429997
			-0.334639  0.038177 -0.941573
			-0.380274 -0.078256 -0.921557
			-0.438070 -0.185012 -0.879696
			-0.462828  0.448662 -0.764521
			-0.230281  0.090304 -0.968925
			-0.305793  0.060328 -0.950185
			-0.411453  0.277844 -0.868049
			-0.171655  0.122601 -0.977499
			-0.463900  0.450312 -0.762900
			-0.175111 -0.055653 -0.982975
			-0.325063 -0.081221 -0.942198
			-0.600445 -0.051107 -0.798031
			-0.508184  0.605676 -0.612295
			-0.440179  0.424678 -0.791133
			-0.551564  0.117919 -0.825756
			-0.588572  0.339158 -0.733864
			-0.178709 -0.144208 -0.973276
			-0.756212  0.317538 -0.572113
			-0.305009  0.694509 -0.651634
			-0.873651  0.176786 -0.453301
			-0.833070 -0.029530 -0.552379
			-0.562474 -0.114367 -0.818867
			-0.278151 -0.102567 -0.955045
			-0.224156 -0.011503 -0.974485
			 0.696460 -0.299361 -0.652171
			 0.192633 -0.417812 -0.887877
			-0.116849  0.052377 -0.991768
			 0.262638 -0.123469 -0.956962
			-0.737293  0.639344 -0.218261
			-0.446501  0.798145  0.404477
			-0.603234  0.479031 -0.637682
			-0.817059  0.508487 -0.271765
			-0.941371  0.331926 -0.060380
			 0.021665  0.489962 -0.871475
			 0.475831  0.696392 -0.537236
			 0.333476  0.175950 -0.926194
			-0.973963  0.181513  0.135829
			-0.561820  0.255128  0.786936
			-0.140137  0.638012  0.757167
			-0.913202  0.406389 -0.030172
			-0.838803  0.368017  0.401214
			-0.167325  0.856035  0.489088
			 0.470112  0.715227  0.517150
			-0.446814  0.680406  0.580865
			 0.263203  0.078829  0.961515
			-0.161897 -0.038991  0.986037
			-0.606765 -0.285564  0.741815
			-0.613142  0.294813  0.732900
			-0.437585  0.773914  0.457794
			-0.620165  0.518171  0.588977
			-0.317802 -0.020370 -0.947938
			-0.137966 -0.031370 -0.989940
			-0.163239 -0.121077 -0.979129
			-0.140449 -0.258553 -0.955732
			-0.150381 -0.289415 -0.945317
			-0.147146 -0.094779 -0.984563
			-0.210155 -0.100452 -0.972494
			-0.199836 -0.115039 -0.973053
			-0.200469 -0.199155 -0.959244
			-0.325480 -0.083968 -0.941813
			-0.869933  0.327043 -0.369134
			-0.691271  0.454534 -0.561732
			-0.479433  0.289611 -0.828414
			-0.680528  0.013687 -0.732594
			-0.873934  0.021116 -0.485585
			-0.662098  0.206281 -0.720468
			-0.181619 -0.364588 -0.913285
			-0.152058 -0.321782 -0.934524
			-0.126727 -0.282058 -0.950991
			-0.413956  0.171301 -0.894034
			-0.734017  0.112632 -0.669726
			 0.208079  0.492017 -0.845354
			 0.054546  0.849046 -0.525495
			-0.244173 -0.121292 -0.962116
			-0.275465 -0.157691 -0.948290
			 0.057585 -0.102139 -0.993102
			-0.074833  0.046357 -0.996118
			 0.945349 -0.322533 -0.047838
			 0.816632 -0.399699 -0.416356
			 0.909602 -0.414992 -0.020145
			 0.648220 -0.396173 -0.650275
			 0.032986 -0.666165 -0.745075
			-0.131837 -0.444072 -0.886239
			 0.107987 -0.663797 -0.740076
			 0.592268 -0.756521 -0.277300
			 0.898200 -0.439543  0.006255
			 0.223038 -0.120913 -0.967282
			 0.532814 -0.314584 -0.785586
			-0.156182  0.838492  0.522052
			-0.119814  0.652295  0.748436
			-0.258555  0.829416 -0.495196
			-0.675080  0.717122 -0.173212
			-0.746034  0.656933  0.108960
			-0.702016  0.683686  0.199369
			-0.761323  0.645760  0.058154
			-0.828703  0.423782  0.365595
			 0.426404  0.425673 -0.798112
			 0.445670  0.416653 -0.792325
			 0.300720  0.642289 -0.705005
			 0.738130  0.170519 -0.652753
			 0.671790 -0.101920 -0.733696
			 0.685364  0.662898 -0.301401
			 0.424275  0.821235 -0.381528
			 0.587457  0.798077 -0.134045
			 0.586771  0.190222 -0.787093
			-0.891436  0.453104 -0.006196
			-0.804174  0.413569  0.426924
			-0.026391 -0.193584  0.980729
			-0.030705  0.432058  0.901323
			-0.647733 -0.261020  0.715759
			-0.053088  0.669013  0.741352
			-0.036119  0.611501  0.790419
			-0.165808  0.666917  0.726451
			-0.133779  0.645011  0.752372
			-0.818411  0.357532  0.449860
			-0.164449 -0.259835  0.951547
			-0.897807 -0.297950  0.324296
			-0.841843 -0.059150  0.536471
			-0.412206  0.550944  0.725635
			-0.604944  0.323054  0.727790
			 0.158011  0.853918  0.495839
			 0.754783  0.650341 -0.085784
			 0.849077  0.525305  0.055879
			 0.743751  0.202493  0.637049
			-0.275435  0.596650  0.753753
			 0.497341 -0.100875  0.861671
			-0.059592 -0.675944  0.734540
			 0.267275 -0.181474  0.946378
			-0.250324 -0.554569  0.793594
			-0.602631 -0.659221  0.449738
			-0.815871 -0.327212  0.476746
			-0.678004  0.295314  0.673127
			-0.605135  0.770425  0.200641
			-0.409659  0.610962  0.677425
			-0.552898  0.474464  0.684972
			-0.204165  0.655724  0.726872
			-0.545978  0.711734  0.441976
			-0.381404  0.907196  0.177556
			-0.223811 -0.010789 -0.974573
			-0.153484 -0.099938 -0.983085
			-0.021328 -0.194499 -0.980671
			 0.120438 -0.902674 -0.413129
			 0.372789 -0.911666 -0.172901
			 0.340611 -0.897817 -0.279122
			 0.098353 -0.671688 -0.734277
			-0.994012  0.046994 -0.098654
			-0.499663 -0.248189 -0.829903
			-0.943547 -0.090060 -0.318761
			-0.754760 -0.047145 -0.654305
			-0.719626 -0.085726 -0.689050
			-0.692604 -0.165223 -0.702140
			-0.952484  0.086507 -0.292046
			-0.828616  0.110377 -0.548828
			-0.134248 -0.545621 -0.827209
			 0.198904 -0.979724 -0.024053
			 0.527049  0.219174 -0.821086
			 0.823201  0.508347 -0.252831
			-0.036806 -0.148710 -0.988196
			 0.096507 -0.061391 -0.993437
			 0.638813 -0.201646 -0.742466
			 0.885924 -0.003392 -0.463818
			 0.907352 -0.314508  0.278921
			 0.819838 -0.513101 -0.254151
			 0.898119 -0.298012  0.323374
			 0.850316 -0.383975  0.359898
			 0.349093 -0.932739 -0.090182
			 0.401823 -0.900662  0.165370
			 0.659200 -0.494525  0.566480
			 0.832785 -0.378495  0.403994
			 0.886459 -0.435186 -0.157490
			-0.291264  0.880957  0.372934
			-0.140602  0.772050  0.619815
			-0.141849  0.982672 -0.119309
			 0.522971  0.711784 -0.468898
			-0.386230  0.822078  0.418346
			-0.270632  0.955079  0.120759
			-0.704984  0.684468  0.185745
			 0.759759  0.194613 -0.620397
			 0.735871 -0.121388 -0.666152
			 0.770206  0.036028 -0.636776
			 0.802662  0.187593 -0.566165
			 0.902694  0.331120 -0.274779
			 0.736736 -0.111838 -0.666867
			 0.785838  0.595963 -0.165186
			-0.579203  0.800355  0.154777
			-0.409750  0.406800  0.816467
			-0.315594  0.712311  0.626908
			-0.685275  0.375225  0.624183
			 0.158380  0.545953  0.822709
			 0.388477  0.207378  0.897820
			-0.420315 -0.636956  0.646237
			-0.161108 -0.868223  0.469290
			 0.170202 -0.451120  0.876083
			 0.618241  0.056452  0.783959
			-0.597727 -0.746689  0.291853
			-0.860799 -0.409381  0.302378
			 0.030393  0.666481  0.744902
			 0.014263  0.853993  0.520089
			-0.109888  0.823740  0.556216
			-0.465077  0.647756  0.603420
			 0.253302  0.410920  0.875776
			-0.970079  0.240187 -0.035462
			 0.658313  0.153525  0.736922
			 0.623989 -0.143892  0.768071
			 0.297807 -0.572481  0.763921
			-0.409051 -0.907310  0.097289
			-0.993711  0.084520 -0.073451
			-0.817751  0.508051  0.270496
			-0.324796  0.568357  0.755961
			-0.283630  0.643907  0.710590
			-0.262164  0.605099  0.751748
			-0.657819  0.662427  0.358418
			-0.155957  0.582003  0.798092
			 0.604330  0.699320 -0.381754
			 0.326238  0.924673  0.196337
			 0.662250  0.387908 -0.641055
			 0.936313  0.348806 -0.040660
			 0.822392  0.388856  0.415286
			 0.624561  0.046085  0.779615
			-0.259233 -0.924511  0.279424
			-0.508114 -0.814813  0.279104
			 0.015247 -0.770311  0.637486
			 0.232392 -0.676043  0.699257
			 0.687620 -0.429113  0.585697
			 0.700929 -0.130292  0.701230
			-0.128287 -0.868637  0.478553
			 0.759592  0.134557  0.636329
			-0.805139 -0.582963 -0.109108
			-0.883499 -0.379821 -0.274164
			-0.760682  0.609059  0.224524
			-0.913692  0.159364 -0.373857
			-0.703555  0.561840  0.435140
			-0.588319  0.767319 -0.255153
			-0.625035  0.776728  0.077623
			-0.076347  0.904480  0.419627
			 0.044308  0.954359  0.295357
			-0.466744  0.717193  0.517478
			 0.120629 -0.775805  0.619335
			 0.105541 -0.872969  0.476221
			 0.578200 -0.710867  0.400440
			 0.745241 -0.594826  0.301328
			 0.760967 -0.203752  0.615966
			 0.223355 -0.706114  0.671949
			 0.471649 -0.516282  0.714843
			 0.325806 -0.796187 -0.509840
			 0.654756 -0.755570  0.020224
			-0.977186  0.126494 -0.170604
			-0.717033 -0.046619 -0.695478
			-0.357065 -0.364964 -0.859829
			-0.639253  0.011250 -0.768914
			-0.682653 -0.101395 -0.723674
			-0.908368  0.361799 -0.209689
			-0.794104  0.553357 -0.251385
			-0.699771  0.243017 -0.671761
			 0.076309 -0.876898  0.474581
			 0.445481 -0.718990  0.533479
			 0.606145 -0.630317  0.485065
			 0.486086 -0.723127  0.490721
			 0.275926 -0.831647  0.481900
			 0.955841  0.259194 -0.138513
			 0.904747  0.394357 -0.160981
			 0.941513 -0.331623  0.059828
			 0.984231 -0.173556  0.034172
			 0.990445  0.137614 -0.008943
			 0.998137  0.003231  0.060934
			 0.990679 -0.094415  0.098186
			 0.962718 -0.153742  0.222571
			 0.880606 -0.313705  0.355136
			 0.917497 -0.255569  0.304769
			 0.888443 -0.392648  0.237691
			 0.893890 -0.299296  0.333740
			 0.845926 -0.343639  0.407825
			 0.388261  0.908331  0.155522
			 0.846718  0.432384 -0.310021
			-0.171614  0.820840  0.544767
			-0.170414  0.775777  0.607560
			-0.157404  0.768966  0.619609
			-0.117823  0.913338  0.389783
			 0.817436  0.049146 -0.573920
			 0.818750  0.076792 -0.568992
			 0.794486  0.105325 -0.598078
			 0.782608  0.096715 -0.614956
			 0.944086 -0.076826 -0.320624
			 0.990477  0.116744 -0.072981
			-0.303464  0.554088  0.775175
			-0.204102  0.713838  0.669909
			-0.968151  0.121056 -0.219157
			-0.746139  0.590407  0.307728
			-0.541338  0.623349  0.564259
			 0.221775  0.852661  0.473060
			 0.615911  0.720066  0.319622
			 0.558209  0.424089  0.713128
			 0.203864 -0.594357  0.777932
			-0.054705 -0.972648 -0.225750
			-0.275171 -0.937264 -0.214049
			 0.207512 -0.976714 -0.054491
			 0.241373 -0.850564  0.467204
			-0.534562 -0.831121 -0.153238
			 0.747328 -0.189431  0.636881
			 0.805410  0.356597  0.473448
			 0.770857  0.417796  0.480859
			-0.666391 -0.723840 -0.178828
			-0.781350 -0.432077 -0.450335
			 0.262509  0.953366  0.148936
			 0.448684  0.708596  0.544586
			 0.150085  0.954252  0.258605
			-0.830456  0.526028  0.183404
			 0.722694  0.534687  0.437976
			-0.924481  0.346560 -0.158843
			-0.908699  0.343756 -0.236850
			-0.845192  0.530095 -0.068196
			-0.851137  0.434472 -0.294618
			-0.893657  0.410047 -0.182317
			 0.792923  0.099943  0.601069
			 0.913269  0.380418  0.145678
			 0.643826 -0.107616  0.757566
			 0.164854 -0.746829  0.644259
			-0.126123 -0.911440  0.391625
			 0.486933 -0.399988  0.776470
			 0.219057 -0.953913 -0.205096
			 0.186322 -0.947950  0.258215
			-0.228326 -0.351722 -0.907832
			-0.604448  0.791866 -0.087122
			-0.414155  0.885342 -0.211292
			-0.769768  0.638275 -0.007864
			-0.755730  0.654104 -0.031941
			-0.587413  0.733228  0.342523
			-0.293561  0.932585 -0.210017
			-0.207265  0.747874  0.630655
			-0.741888  0.659811 -0.119379
			 0.418675  0.646664 -0.637602
			 0.089491  0.086250 -0.992246
			 0.190526 -0.466052 -0.864000
			 0.763925 -0.246432 -0.596398
			 0.989402 -0.110615  0.094069
			 0.067069 -0.930909  0.359042
			-0.365797 -0.929542  0.046314
			-0.571201 -0.805705 -0.156745
			 0.043680 -0.780507  0.623619
			 0.904944 -0.099611  0.413709
			 0.852278 -0.223816  0.472788
			-0.559226 -0.605128 -0.566645
			-0.541388 -0.336994 -0.770281
			-0.777663  0.508828  0.369234
			-0.710183  0.698120 -0.090931
			-0.656676  0.738703 -0.151966
			-0.404527  0.900516 -0.159466
			-0.544393  0.809991 -0.218061
			-0.571357  0.798673 -0.188871
			-0.355896  0.772756 -0.525534
			-0.379954  0.248125 -0.891105
			-0.594682  0.722562  0.352503
			-0.442496  0.896589 -0.018027
			-0.241412  0.956086  0.166191
			 0.316400  0.947858 -0.038178
			 0.406061  0.913829  0.005589
			 0.383228  0.912332  0.144176
			 0.798869 -0.437518  0.412779
			 0.918006 -0.294287  0.265821
			 0.727285 -0.681521  0.081154
			 0.650579 -0.091899  0.753858
			 0.920109 -0.025829  0.390810
			 0.751442 -0.655276  0.077126
			 0.574631 -0.688234 -0.442869
			-0.602234 -0.113800 -0.790167
			 0.845928 -0.493373 -0.202456
			 0.465090 -0.298748 -0.833331
			-0.543418  0.025544 -0.839074
			-0.565777  0.019641 -0.824324
			-0.876059  0.412955 -0.248975
			-0.891852  0.448292  0.060281
			-0.759493  0.468469 -0.451339
			-0.779444  0.618966 -0.096686
			-0.830446  0.522356 -0.193659
			-0.688047  0.209552 -0.694752
			 0.141034 -0.878064  0.457289
			 0.587542 -0.748527  0.307410
			 0.303427 -0.775681  0.553400
			 0.996623  0.074842  0.033783
			 0.874846 -0.319591  0.364015
			 0.938670 -0.279272  0.202252
			 0.997627 -0.049699 -0.047648
			 0.932978 -0.189804  0.305822
			 0.881201 -0.248799  0.401976
			 0.801411 -0.589043  0.103774
			 0.979076 -0.193205  0.063896
			 0.448264  0.819692  0.356601
			 0.084116  0.815100  0.573180
			 0.749858  0.142152 -0.646147
			 0.762002  0.515628 -0.391766
			 0.537892  0.832184  0.134690
			 0.801905  0.131211 -0.582866
			-0.048946  0.836795  0.545324
			-0.076176  0.775061  0.627278
			 0.684864  0.187826 -0.704048
			 0.544539 -0.204323 -0.813468
			 0.752569 -0.247432 -0.610261
			 0.813662 -0.398392 -0.423364
			 0.934880 -0.332947 -0.123065
			-0.265909  0.583988  0.766975
			-0.308691  0.609750  0.730010
			-0.045227  0.831486  0.553701
			-0.573223  0.716025 -0.398402
			-0.621001  0.123766 -0.773977
			-0.475769  0.878018  0.052228
			-0.296240  0.645776  0.703716
			-0.569187  0.760075  0.313548
			-0.684053  0.711417  0.161113
			-0.769759  0.588690  0.246810
			-0.517141  0.853454  0.064663
			-0.710140  0.698891  0.085161
			 0.721445  0.664515 -0.194772
			 0.796236  0.603000 -0.048981
			 0.546371  0.827460  0.129571
			 0.642985  0.765651 -0.018698
			 0.550849 -0.629650  0.547819
			 0.008213 -0.869205 -0.494384
			-0.314692 -0.765589 -0.561108
			 0.520543 -0.793717 -0.314719
			 0.728502 -0.679250  0.088905
			 0.833256  0.347456  0.430068
			 0.977999  0.173127  0.116384
			 0.813516 -0.516876  0.266517
			 0.852934  0.483225  0.197477
			-0.307034 -0.394539 -0.866065
			 0.701609  0.710038 -0.059919
			-0.432146  0.893756  0.120211
			 0.490053  0.779027 -0.391106
			 0.250756  0.966755 -0.050064
			-0.829099  0.422212 -0.366513
			-0.479540  0.808823 -0.340362
			-0.593218  0.790677 -0.151402
			-0.884576  0.449858  0.123095
			 0.974401  0.083171  0.208869
			 0.971328  0.035389  0.235097
			 0.568058  0.499104 -0.654374
			 0.983139 -0.050025 -0.175884
			 0.977062 -0.149416  0.151740
			 0.990905 -0.131597  0.028083
			 0.183906 -0.759257 -0.624265
			 0.526788 -0.822789 -0.213335
			 0.729047 -0.684435  0.006246
			 0.350947 -0.429993 -0.831831
			 0.325335  0.047116 -0.944424
			-0.091546  0.678819 -0.728577
			-0.560583  0.743999  0.363610
			-0.373211  0.814637  0.443936
			-0.585713  0.810518  0.000096
			-0.737770  0.663487  0.124420
			-0.763728  0.554506 -0.330518
			-0.630156  0.609634 -0.480885
			-0.793389  0.546846 -0.267381
			-0.696650  0.592277  0.404828
			-0.562009  0.747638 -0.353813
			-0.668303  0.733463 -0.124112
			-0.445167  0.881674 -0.156449
			-0.274484  0.929534 -0.246223
			-0.224528  0.251489 -0.941456
			-0.108962 -0.154481 -0.981969
			 0.402174 -0.889985 -0.214903
			-0.186772 -0.256239 -0.948398
			 0.044721 -0.838653 -0.542826
			 0.249171 -0.960614  0.123022
			 0.325709 -0.941784  0.083408
			-0.254037 -0.966641 -0.032709
			-0.010439 -0.996630  0.081357
			 0.154248 -0.980408  0.122510
			-0.348340 -0.888329 -0.299218
			-0.596817  0.749128  0.287430
			-0.716774  0.697272 -0.006800
			-0.747176  0.647038  0.151889
			-0.614861  0.788593 -0.008257
			-0.395025  0.884039 -0.249861
			-0.486353  0.843724 -0.227138
			-0.131882  0.991041 -0.021096
			 0.333975  0.892257 -0.303870
			 0.117050  0.961683 -0.247921
			 0.519721  0.852633 -0.053925
			 0.882159 -0.449225  0.141392
			 0.690393 -0.656503  0.303908
			 0.852267 -0.478897  0.210474
			-0.671873 -0.064109 -0.737887
			-0.582446 -0.251631 -0.772942
			 0.840704 -0.308414  0.445081
			 0.878493  0.034239  0.476527
			-0.384257 -0.309964 -0.869637
			-0.680079 -0.221847 -0.698768
			 0.913758  0.145630  0.379261
			 0.917918  0.153349  0.365939
			 0.947565 -0.221147 -0.230683
			-0.784665  0.197523 -0.587611
			-0.994905  0.019179 -0.098979
			-0.983693  0.165587  0.070213
			-0.943123  0.063696  0.326284
			-0.877177 -0.003531  0.480153
			 0.525440 -0.843681  0.110072
			 0.649358 -0.738726  0.180605
			 0.756810 -0.652445 -0.039413
			 0.944107  0.038947 -0.327332
			 0.977585 -0.091791 -0.189478
			 0.143535  0.793075  0.591971
			 0.763699  0.602387 -0.232150
			 0.757906  0.448325 -0.473903
			 0.693338  0.720211 -0.024056
			 0.664847  0.198354 -0.720163
			-0.114080  0.840172  0.530185
			-0.418959  0.900074  0.119755
			 0.654229  0.755070  0.043053
			-0.340941  0.923999  0.173163
			 0.317857 -0.507409 -0.800939
			 0.317294 -0.643982 -0.696141
			 0.656214 -0.416826 -0.628999
			 0.554793 -0.144149 -0.819406
			 0.579619 -0.623014 -0.525258
			 0.812294 -0.489147 -0.317669
			-0.269195  0.690481  0.671394
			-0.169889  0.841990 -0.512046
			-0.216303  0.857811 -0.466233
			-0.148345  0.773961 -0.615612
			-0.209942  0.437592 -0.874321
			-0.240738  0.921871 -0.303644
			-0.653329  0.751153 -0.094502
			-0.674900  0.700803  0.231054
			-0.637827  0.765521 -0.084586
			-0.730968  0.682171 -0.018118
			-0.805976  0.490101  0.331969
			-0.858743  0.511950  0.021612
			-0.868620  0.470164  0.156351
			-0.487571  0.873054  0.007232
			 0.660971  0.660194 -0.356737
			 0.774697  0.525201 -0.352149
			 0.435737  0.793907 -0.424081
			 0.238162 -0.588288 -0.772785
			 0.254734 -0.791369 -0.555739
			 0.890237  0.160852 -0.426152
			 0.328481  0.046043 -0.943388
			 0.224313  0.414605 -0.881922
			 0.089341  0.674251 -0.733078
			-0.807487  0.185173 -0.560068
			-0.915139  0.400919  0.042234
			-0.653382  0.363330  0.664141
			-0.452618  0.544042  0.706509
			-0.858215 -0.509960  0.058374
			-0.839540  0.001013 -0.543297
			 0.972168 -0.095527  0.213926
			 0.692918  0.013865 -0.720883
			 0.583692 -0.811851 -0.014176
			 0.939401 -0.336200 -0.067041
			 0.933292 -0.201888 -0.296995
			 0.545569 -0.683125 -0.485484
			 0.640128 -0.760732 -0.107342
			 0.701818 -0.686745 -0.189294
			 0.552488 -0.832176 -0.047335
			 0.712643 -0.478669 -0.512851
			-0.654199  0.747169  0.117313
			-0.401219  0.914000 -0.060231
			-0.444684  0.881898  0.156566
			-0.278029  0.929415  0.242667
			-0.337723  0.934892  0.109183
			-0.337282  0.583913 -0.738435
			-0.837600  0.544009 -0.049803
			-0.884935 -0.121599 -0.449560
			-0.621120  0.422203 -0.660268
			-0.890968 -0.003858 -0.454051
			-0.456706  0.549891 -0.699314
			-0.882368  0.457145 -0.111561
			-0.978730  0.203784 -0.023654
			-0.633318  0.289849 -0.717562
			-0.895497  0.426028 -0.128780
			-0.355167  0.725094 -0.589996
			-0.325885  0.901080 -0.286102
			 0.259383 -0.963069 -0.072236
			 0.290542 -0.954841 -0.062160
			 0.653841 -0.756538  0.011871
			 0.275369 -0.960928  0.028093
			 0.537215 -0.819980  0.197570
			 0.114792 -0.981205 -0.155114
			 0.333339 -0.939613 -0.077544
			 0.248152 -0.968719 -0.001831
			 0.367865 -0.929485 -0.027064
			-0.449618  0.891897 -0.048611
			-0.769733  0.636172 -0.052879
			-0.678690  0.729387  0.085881
			-0.717231  0.696282 -0.027771
			-0.686133  0.712545  0.146636
			-0.625714  0.761450  0.169342
			-0.414797  0.908015 -0.058753
			-0.479924  0.848719  0.222145
			-0.586213  0.790423  0.177727
			-0.676888  0.722906  0.138670
			 0.742305 -0.281598  0.608019
			 0.555211 -0.574504  0.601403
			-0.862444 -0.051837 -0.503491
			-0.844363 -0.245275 -0.476330
			 0.789902 -0.101268  0.604813
			 0.838624  0.031632  0.543791
			 0.877610  0.234137  0.418307
			 0.903247  0.192068  0.383736
			-0.862798 -0.285550 -0.417183
			-0.492798 -0.499509 -0.712489
			-0.744788 -0.340558 -0.573856
			-0.857372 -0.342095 -0.384558
			 0.955755 -0.165789  0.242994
			 0.974848  0.139400  0.173896
			 0.904489  0.090802  0.416719
			 0.867584  0.061158  0.493515
			 0.853871 -0.222196  0.470674
			 0.821735  0.170572  0.543743
			 0.853497 -0.359726 -0.377014
			-0.924576 -0.159558 -0.345977
			-0.987388  0.146731  0.059457
			-0.998308 -0.022405 -0.053659
			-0.983627 -0.154115 -0.093418
			-0.993969 -0.077117  0.077970
			-0.481285  0.343262  0.806558
			 0.143797  0.059361  0.987825
			-0.010314 -0.321013  0.947019
			-0.209952 -0.584908  0.783456
			 0.465737 -0.858104 -0.216210
			 0.293780 -0.947342 -0.127420
			 0.832440 -0.258587 -0.490078
			 0.779989  0.590130 -0.208241
			 0.800956  0.374368 -0.467245
			 0.652174  0.757800  0.020206
			 0.670007  0.742142 -0.017737
			 0.817800  0.511458 -0.263845
			 0.645108  0.763690  0.024771
			 0.641306  0.767252  0.007177
			-0.913602  0.401321  0.065366
			-0.675036  0.737726 -0.009354
			 0.634603 -0.219066 -0.741140
			 0.398862 -0.621460 -0.674313
			 0.481003 -0.748276 -0.456858
			 0.163421 -0.762071 -0.626532
			-0.378113  0.883546 -0.276365
			-0.392616  0.909543 -0.136328
			-0.719828  0.694152  0.000570
			-0.630311  0.771683  0.084927
			-0.209469  0.875577  0.435301
			-0.547964  0.832966 -0.076834
			-0.597623  0.791875  0.125621
			-0.635727  0.771914 -0.000086
			-0.597719  0.791796 -0.125659
			-0.391701  0.914808  0.098466
			-0.706011  0.687218 -0.171112
			 0.693193  0.328099 -0.641743
			 0.634527 -0.303731 -0.710720
			-0.713160  0.027095 -0.700478
			-0.797347  0.111521 -0.593128
			-0.747475 -0.009137 -0.664227
			-0.903534  0.239672 -0.355223
			-0.944291  0.312439 -0.103419
			-0.827423  0.406531  0.387432
			-0.732318  0.216533  0.645619
			-0.570623 -0.003690  0.821204
			 0.011289 -0.978401  0.206406
			-0.591588 -0.596897 -0.541976
			-0.492679 -0.205327 -0.845641
			 0.270673 -0.822626  0.500022
			 0.184392 -0.805064 -0.563801
			 0.191762 -0.827798 -0.527237
			 0.823014 -0.555188 -0.120057
			 0.510919 -0.805127 -0.301217
			 0.805608 -0.573933 -0.146956
			 0.715238 -0.650644 -0.255141
			 0.692020 -0.720372 -0.046612
			 0.756964 -0.647696 -0.086571
			 0.722991 -0.673042 -0.155882
			 0.764993 -0.618393 -0.179933
			-0.337098  0.937078  0.090830
			-0.369951  0.917115  0.148445
			-0.401896  0.883536  0.240506
			-0.355980  0.772821  0.525382
			-0.359991  0.311212  0.879519
			 0.469234  0.685836  0.556282
			-0.235948  0.366335  0.900071
			 0.496247  0.861392 -0.108360
			-0.123021  0.766785 -0.630005
			-0.253990  0.608685 -0.751659
			-0.316455  0.599660 -0.735027
			-0.667549  0.190825  0.719698
			-0.931206 -0.364491  0.001101
			-0.491418  0.827322  0.272114
			-0.862787 -0.446267 -0.237579
			-0.848401  0.401572 -0.344899
			-0.501023  0.684934 -0.529000
			-0.932994  0.018902 -0.359395
			-0.928293  0.294895 -0.226517
			-0.906927  0.111725 -0.406202
			-0.829735  0.421292  0.366131
			-0.819073  0.450996  0.354572
			-0.807388  0.185232  0.560191
			-0.853265 -0.517386 -0.065193
			-0.839538  0.001094  0.543299
			-0.997986 -0.063423 -0.000788
			-0.597028  0.004402 -0.802208
			-0.768560  0.000171 -0.639778
			-0.965300  0.212267 -0.152115
			-0.828908  0.391625 -0.399426
			-0.964866  0.199626  0.170830
			-0.913106  0.203846  0.353108
			 0.305501 -0.952176  0.005457
			 0.340269 -0.940182 -0.016563
			 0.791764 -0.610740 -0.010299
			 0.632171 -0.768878  0.095851
			 0.770174 -0.637035  0.031912
			 0.793629 -0.608337  0.008876
			 0.075014 -0.912950  0.401116
			 0.194739 -0.878164  0.436927
			 0.279032 -0.959140 -0.046809
			 0.317778 -0.947328 -0.039841
			 0.348243 -0.937248 -0.017153
			 0.351067 -0.936337  0.005047
			 0.260284 -0.962915 -0.071047
			 0.344775 -0.935411 -0.078339
			 0.406873 -0.912774 -0.036029
			 0.351152 -0.929028  0.116617
			 0.337793 -0.932393  0.128603
			 0.273443 -0.872003  0.406005
			 0.599668 -0.754714  0.266092
			 0.213225 -0.951013  0.223850
			 0.824105 -0.565477 -0.032963
			 0.981932 -0.171257  0.080505
			 0.725822 -0.231851  0.647632
			 0.547040 -0.836425  0.033763
			 0.376636 -0.919312 -0.114062
			 0.301307 -0.952073 -0.052650
			 0.352380 -0.935320 -0.031705
			-0.761858  0.622434 -0.179301
			-0.748763  0.607647 -0.264801
			-0.723770  0.453377 -0.520197
			-0.690646  0.707188 -0.151307
			-0.724465  0.653370 -0.219675
			-0.762939  0.569175 -0.306536
			 0.736992 -0.186618  0.649628
			 0.611920 -0.373058  0.697410
			-0.968576 -0.181274 -0.170295
			-0.907669 -0.279806 -0.312802
			 0.804749 -0.021059  0.593241
			 0.857778  0.083857  0.507133
			 0.945720  0.221330  0.237963
			 0.876319  0.226077  0.425388
			 0.921828  0.373879  0.102210
			 0.981477  0.190864  0.016560
			-0.961167 -0.268499 -0.063772
			-0.910958 -0.323845 -0.255499
			-0.919304 -0.220683 -0.325850
			-0.790326 -0.400227 -0.463900
			-0.930734 -0.311767 -0.191142
			-0.925283 -0.146679 -0.349766
			-0.212742 -0.763480 -0.609786
			-0.813211 -0.294495 -0.501956
			 0.483190 -0.875248 -0.021652
			 0.959099 -0.270054 -0.084847
			 0.989325 -0.073806 -0.125657
			 0.770924 -0.059768  0.634116
			 0.624743 -0.226995  0.747107
			 0.456355 -0.557497  0.693497
			 0.722008  0.582421  0.373484
			 0.873511  0.452304  0.180000
			-0.464167  0.063493  0.883469
			 0.981368  0.067777 -0.179784
			-0.637085  0.735985 -0.229019
			-0.933468  0.131236 -0.333790
			-0.999823 -0.005312 -0.018059
			-0.961313 -0.116662 -0.249534
			 0.575966  0.601790  0.553274
			 0.717024  0.372358  0.589259
			 0.500939 -0.033866  0.864820