<?xml version="1.0"?>
<VTKFile type="PolyData" version="0.1" byte_order="LittleEndian" compressor="vtkZLibDataCompressor">
	<PolyData>
		<Piece NumberOfPoints="122" NumberOfVerts="0" NumberOfLines="0" NumberOfStrips="0" NumberOfPolys="130">
		<PointData Normals="Normals">
		<DataArray type="Float32" Name="Normals" NumberOfComponents="3" format="ascii">
			0.739011 -0.611425 -0.282882
			0.598863 -0.699511 0.389933
			0.113873 -0.161309 0.980312
			0.223148 -0.005835 0.974767
			0.058473 0.122930 0.990691
			0.008114 0.038740 0.999216
			-0.005401 -0.036627 0.999314
			-0.171854 -0.005169 0.985109
			-0.192784 0.017826 0.981079
			-0.165514 0.038631 0.985451
			-0.051790 0.030816 0.998182
			-0.096559 0.029208 0.994899
			-0.008742 0.321539 0.946856
			0.518056 0.739163 0.430415
			0.781858 -0.613710 0.109810
			0.497149 -0.137208 0.856748
			0.533472 0.168041 0.828957
			0.520052 0.079212 0.850453
			0.638841 0.004956 0.769323
			0.757296 -0.029385 0.652411
			0.691038 -0.000279 0.722818
			0.637572 0.020470 0.770119
			0.552233 -0.011869 0.833606
			0.218030 -0.309981 0.925405
			-0.023874 -0.121905 0.992255
			-0.105880 0.522135 0.846265
			0.799365 -0.599645 -0.037957
			0.934265 -0.121732 0.335156
			0.890381 0.272554 0.364604
			0.942275 0.066382 0.328193
			0.964690 0.001090 0.263386
			0.979972 -0.025667 0.197474
			0.968802 0.002354 0.247825
			0.959713 0.021560 0.280155
			0.964197 -0.042869 0.261700
			0.812429 -0.522320 0.259116
			0.816666 -0.317192 0.482126
			0.436087 0.789787 0.431351
			0.820670 -0.564678 -0.087398
			0.952845 -0.031336 -0.301837
			0.910347 0.260543 -0.321536
			0.956296 0.039945 -0.289658
			0.923478 0.003560 -0.383634
			0.836874 -0.026058 -0.546774
			0.911651 -0.022672 -0.410340
			0.993155 -0.016654 -0.115612
			0.999042 -0.040344 0.016958
			0.959930 -0.211119 -0.184294
			0.932136 0.117858 -0.342392
			0.590761 0.806785 -0.009996
			0.716099 -0.563188 -0.412337
			0.602300 0.078348 -0.794416
			0.503969 0.229646 -0.832633
			0.569869 0.003724 -0.821727
			0.447910 0.009065 -0.894033
			0.059069 -0.023749 -0.997971
			0.122730 -0.103285 -0.987051
			0.660577 -0.269311 -0.700792
			0.900762 -0.169827 -0.399732
			0.828296 0.232834 -0.509621
			0.632141 0.532560 -0.562830
			0.575888 0.817141 -0.025159
			0.283089 -0.694992 -0.660944
			0.163258 -0.021055 -0.986359
			0.313264 0.117195 -0.942407
			0.029109 0.008564 -0.999540
			-0.542965 0.037331 -0.838925
			-0.608683 -0.012030 -0.793322
			-0.409659 -0.077143 -0.908971
			-0.244037 -0.240105 -0.939572
			-0.076681 -0.214032 -0.973812
			0.216450 0.191941 -0.957240
			0.356168 0.473814 -0.805385
			0.581600 0.802935 -0.130521
			0.028978 -0.715365 -0.698150
			-0.215418 -0.320097 -0.922569
			0.150960 -0.077622 -0.985488
			-0.549573 0.024869 -0.835075
			-0.857514 0.053144 0.511708
			-0.966872 0.019623 0.254508
			-0.898818 -0.013639 -0.438109
			-0.919052 -0.045677 -0.391481
			-0.943759 -0.056898 -0.325702
			-0.645164 -0.095026 -0.758112
			-0.168402 0.194788 -0.966281
			0.483239 0.798062 -0.359968
			0.047133 -0.875699 -0.480551
			-0.691765 -0.582635 -0.426612
			-0.677867 -0.363506 -0.639030
			-0.940362 0.339934 -0.012780
			-0.720400 0.363061 0.590940
			-0.917087 0.073087 0.391931
			-0.990038 0.009158 0.140504
			-0.994923 -0.002584 0.100606
			-0.995894 -0.031849 0.084741
			-0.962702 -0.145677 -0.227997
			-0.841204 0.191438 -0.505695
			0.215578 0.939237 -0.267131
			0.096115 -0.968362 0.230298
			-0.759291 -0.534867 0.370668
			-0.822983 -0.341532 0.453932
			-0.884198 0.360141 0.297475
			-0.916889 0.389672 0.086434
			-0.998343 0.057493 0.002467
			-0.998464 0.005633 -0.055108
			-1.000000 0.000397 0.000216
			-0.982754 -0.012103 0.184519
			-0.884588 -0.108091 0.453675
			-0.740817 0.185118 0.645695
			0.351543 0.753544 0.555508
			0.297130 -0.856864 0.421304
			-0.319100 -0.323364 0.890848
			-0.244129 -0.170735 0.954594
			-0.469330 0.221052 0.854907
			-0.744762 0.152232 0.649734
			-0.878073 -0.015189 0.478286
			-0.946152 -0.002878 0.323709
			-0.920212 0.008280 0.391333
			-0.732190 0.033070 0.680297
			-0.192489 0.009269 0.981255
			0.037188 0.054101 0.997843
			0.457976 0.313862 0.831714
		</DataArray>
	</PointData>
	<Points>
		<DataArray type="Float32" NumberOfComponents="3" format="ascii">
			-0.004000 -0.425441 -0.030000
			-0.004000 -0.431823 -0.024600
			-0.004000 -0.422082 -0.024060
			-0.004000 -0.410660 -0.020010
			-0.004000 -0.392520 -0.022440
			-0.004000 -0.382444 -0.024330
			-0.004000 -0.322989 -0.021090
			-0.004000 -0.255471 -0.020010
			-0.004000 -0.205421 -0.020010
			-0.004000 -0.154364 -0.021630
			-0.004000 -0.120437 -0.024330
			-0.004000 -0.083823 -0.026490
			-0.004000 -0.070387 -0.025950
			-0.004000 -0.065685 -0.030000
			-0.000350 -0.424433 -0.024976
			0.001713 -0.415363 -0.022137
			0.001237 -0.404111 -0.022792
			0.000126 -0.387819 -0.024321
			-0.000826 -0.365481 -0.025631
			0.000840 -0.301155 -0.023337
			0.001555 -0.226584 -0.022354
			0.001237 -0.176366 -0.022792
			0.000443 -0.125979 -0.023884
			0.000126 -0.101459 -0.024321
			0.001158 -0.081305 -0.022901
			-0.000429 -0.068708 -0.025085
			0.002676 -0.417044 -0.027831
			0.008839 -0.408645 -0.025828
			0.003447 -0.397560 -0.027580
			0.002162 -0.383116 -0.027997
			0.000879 -0.348518 -0.028414
			0.003190 -0.279321 -0.027664
			0.004474 -0.197696 -0.027247
			0.003447 -0.147310 -0.027580
			0.002420 -0.097595 -0.027914
			0.003960 -0.082480 -0.027413
			0.009352 -0.078786 -0.025661
			0.003704 -0.067028 -0.027497
			0.002676 -0.417044 -0.032169
			0.008839 -0.408645 -0.034171
			0.003447 -0.397560 -0.032420
			0.002162 -0.383116 -0.032002
			0.000879 -0.348518 -0.031586
			0.003190 -0.279321 -0.032336
			0.004474 -0.197696 -0.032753
			0.003447 -0.147310 -0.032420
			0.002420 -0.097595 -0.032086
			0.003960 -0.082480 -0.032587
			0.009352 -0.078786 -0.034339
			0.003704 -0.067028 -0.032503
			0.001476 -0.419899 -0.037536
			0.004094 -0.409821 -0.041140
			-0.000270 -0.394706 -0.035134
			-0.000509 -0.370015 -0.034805
			-0.000985 -0.301996 -0.034150
			-0.000905 -0.218354 -0.034260
			0.000364 -0.160746 -0.036007
			0.001555 -0.121949 -0.037645
			0.003538 -0.091717 -0.040376
			0.003856 -0.077777 -0.040813
			0.003141 -0.072571 -0.039830
			-0.000191 -0.064341 -0.035242
			-0.004000 -0.422753 -0.041610
			-0.004000 -0.410996 -0.044040
			-0.004000 -0.391850 -0.034860
			-0.004000 -0.356915 -0.035400
			-0.004000 -0.255471 -0.035130
			-0.004000 -0.157387 -0.032970
			-0.004000 -0.123797 -0.035940
			-0.004000 -0.096588 -0.041070
			-0.004000 -0.085840 -0.048900
			-0.004000 -0.073075 -0.048360
			-0.004000 -0.066356 -0.040260
			-0.004000 -0.061653 -0.034860
			-0.008047 -0.425945 -0.035570
			-0.010665 -0.415029 -0.039175
			-0.009713 -0.402096 -0.037863
			-0.010110 -0.380934 -0.038410
			-0.008285 -0.328532 -0.035898
			-0.006460 -0.269580 -0.033386
			-0.006777 -0.219362 -0.033822
			-0.008443 -0.156043 -0.036116
			-0.010745 -0.117079 -0.039284
			-0.011221 -0.094405 -0.039939
			-0.011935 -0.069043 -0.040922
			-0.007095 -0.059135 -0.034260
			-0.006055 -0.429136 -0.030668
			-0.012217 -0.419059 -0.032670
			-0.017866 -0.412340 -0.034505
			-0.018637 -0.404950 -0.034756
			-0.012987 -0.401592 -0.032921
			-0.009135 -0.381773 -0.031669
			-0.007338 -0.314928 -0.031084
			-0.007852 -0.215499 -0.031252
			-0.007852 -0.148318 -0.031252
			-0.009906 -0.115734 -0.031919
			-0.019921 -0.071731 -0.035173
			-0.009393 -0.056615 -0.031752
			-0.006055 -0.429136 -0.029332
			-0.012217 -0.419059 -0.027330
			-0.017866 -0.412340 -0.025495
			-0.018637 -0.404950 -0.025244
			-0.012987 -0.401592 -0.027079
			-0.009135 -0.381773 -0.028331
			-0.007338 -0.314928 -0.028916
			-0.007852 -0.215499 -0.028748
			-0.007852 -0.148318 -0.028748
			-0.009906 -0.115734 -0.028081
			-0.019921 -0.071731 -0.024827
			-0.009393 -0.056615 -0.028248
			-0.006222 -0.430480 -0.026942
			-0.008285 -0.420571 -0.024102
			-0.011221 -0.411500 -0.020061
			-0.010745 -0.398736 -0.020716
			-0.008443 -0.392018 -0.023884
			-0.008206 -0.352382 -0.024211
			-0.007967 -0.285200 -0.024539
			-0.008126 -0.210460 -0.024321
			-0.007650 -0.151340 -0.024976
			-0.007491 -0.118086 -0.025195
			-0.009952 -0.077777 -0.021809
			-0.006857 -0.063501 -0.026068
		</DataArray>
	</Points>
			<Polys>
				<DataArray type="Int32" Name="connectivity" format="ascii">
					14 1 0 
					14 15 2 1 
					15 16 3 2 
					16 17 4 3 
					17 18 5 4 
					18 19 6 5 
					19 20 7 6 
					20 21 8 7 
					21 22 9 8 
					22 23 10 9 
					23 24 11 10 
					24 25 12 11 
					25 13 12 
					26 14 0 
					26 27 15 14 
					27 28 16 15 
					28 29 17 16 
					29 30 18 17 
					30 31 19 18 
					31 32 20 19 
					32 33 21 20 
					33 34 22 21 
					34 35 23 22 
					35 36 24 23 
					36 37 25 24 
					37 13 25 
					38 26 0 
					38 39 27 26 
					39 40 28 27 
					40 41 29 28 
					41 42 30 29 
					42 43 31 30 
					43 44 32 31 
					44 45 33 32 
					45 46 34 33 
					46 47 35 34 
					47 48 36 35 
					48 49 37 36 
					49 13 37 
					50 38 0 
					50 51 39 38 
					51 52 40 39 
					52 53 41 40 
					53 54 42 41 
					54 55 43 42 
					55 56 44 43 
					56 57 45 44 
					57 58 46 45 
					58 59 47 46 
					59 60 48 47 
					60 61 49 48 
					61 13 49 
					62 50 0 
					62 63 51 50 
					63 64 52 51 
					64 65 53 52 
					65 66 54 53 
					66 67 55 54 
					67 68 56 55 
					68 69 57 56 
					69 70 58 57 
					70 71 59 58 
					71 72 60 59 
					72 73 61 60 
					73 13 61 
					74 62 0 
					74 75 63 62 
					75 76 64 63 
					76 77 65 64 
					77 78 66 65 
					78 79 67 66 
					79 80 68 67 
					80 81 69 68 
					81 82 70 69 
					82 83 71 70 
					83 84 72 71 
					84 85 73 72 
					85 13 73 
					86 74 0 
					86 87 75 74 
					87 88 76 75 
					88 89 77 76 
					89 90 78 77 
					90 91 79 78 
					91 92 80 79 
					92 93 81 80 
					93 94 82 81 
					94 95 83 82 
					95 96 84 83 
					96 97 85 84 
					97 13 85 
					98 86 0 
					98 99 87 86 
					99 100 88 87 
					100 101 89 88 
					101 102 90 89 
					102 103 91 90 
					103 104 92 91 
					104 105 93 92 
					105 106 94 93 
					106 107 95 94 
					107 108 96 95 
					108 109 97 96 
					109 13 97 
					110 98 0 
					110 111 99 98 
					111 112 100 99 
					112 113 101 100 
					113 114 102 101 
					114 115 103 102 
					115 116 104 103 
					116 117 105 104 
					117 118 106 105 
					118 119 107 106 
					119 120 108 107 
					120 121 109 108 
					121 13 109 
					1 110 0 
					1 2 111 110 
					2 3 112 111 
					3 4 113 112 
					4 5 114 113 
					5 6 115 114 
					6 7 116 115 
					7 8 117 116 
					8 9 118 117 
					9 10 119 118 
					10 11 120 119 
					11 12 121 120 
					12 13 121 
				</DataArray>
				<DataArray type="Int32" Name="offsets" format="ascii">
					3 7 11 15 19 23 27 31 35 39 43 47 50 53 57 61 65 69 73 77 81 85 89 93 97 100 103 107 111 115 119 123 127 131 135 139 143 147 150 153 157 161 165 169 173 177 181 185 189 193 197 200 203 207 211 215 219 223 227 231 235 239 243 247 250 253 257 261 265 269 273 277 281 285 289 293 297 300 303 307 311 315 319 323 327 331 335 339 343 347 350 353 357 361 365 369 373 377 381 385 389 393 397 400 403 407 411 415 419 423 427 431 435 439 443 447 450 453 457 461 465 469 473 477 481 485 489 493 497 500 
				</DataArray>
			</Polys>
		</Piece>
	</PolyData>
</VTKFile>
