<?xml version="1.0"?>
<VTKFile type="PolyData" version="0.1" byte_order="LittleEndian" compressor="vtkZLibDataCompressor">
	<PolyData>
		<Piece NumberOfPoints="142" NumberOfVerts="0" NumberOfLines="0" NumberOfStrips="0" NumberOfPolys="158">
		<PointData Normals="Normals">
		<DataArray type="Float32" Name="Normals" NumberOfComponents="3" format="ascii">
			0.026104 0.982554 0.184135
			-0.010088 0.990018 -0.140578
			0.034372 0.558508 -0.828787
			-0.002309 -0.000637 -0.999997
			-0.146566 -0.284963 -0.947267
			-0.193001 -0.264807 -0.944790
			-0.150248 -0.059242 -0.986872
			-0.078425 -0.021929 -0.996679
			0.042035 0.010645 -0.999059
			0.092231 0.153234 -0.983876
			0.077901 0.206605 -0.975318
			0.051044 -0.069486 -0.996276
			0.162597 -0.933803 -0.318707
			0.232431 -0.871508 0.431798
			0.245115 -0.960657 -0.130602
			0.238699 -0.942708 -0.233077
			0.466226 0.872619 -0.145495
			0.731198 0.348308 -0.586541
			0.607780 0.180044 -0.773426
			0.398345 0.037956 -0.916450
			0.200963 -0.154788 -0.967293
			0.186448 -0.112460 -0.976007
			0.462625 -0.107351 -0.880031
			0.696432 -0.069189 -0.714279
			0.763030 0.023014 -0.645954
			0.722664 0.098584 -0.684133
			0.528910 0.154492 -0.834498
			0.415589 -0.357325 -0.836423
			0.003453 -0.925101 -0.379707
			-0.332430 -0.866360 -0.372706
			0.614181 0.786537 -0.064354
			0.963271 0.192966 -0.186742
			0.916346 0.300625 -0.264450
			0.920917 0.261032 -0.289437
			0.890760 -0.059736 -0.450532
			0.838430 -0.123960 -0.530725
			0.952326 -0.148922 -0.266266
			0.985826 -0.097664 -0.136415
			0.994039 -0.022162 -0.106751
			0.981346 0.064591 -0.181075
			0.896560 0.286703 -0.337612
			0.880936 0.017191 -0.472923
			0.502130 -0.769096 -0.395419
			-0.198670 -0.948526 -0.246635
			0.441594 0.893826 0.077905
			0.880415 0.473917 0.016467
			0.929906 0.345489 0.126144
			0.924582 0.229161 0.304358
			0.933568 -0.081727 0.348958
			0.905319 -0.125080 0.405898
			0.777599 -0.197024 0.597094
			0.859114 -0.096393 0.502624
			0.916055 -0.015966 0.400735
			0.932157 0.061806 0.356739
			0.915724 0.279696 0.288479
			0.944965 0.031062 0.325693
			0.640219 -0.725743 0.251828
			-0.035967 -0.999256 0.013895
			0.184094 0.981937 0.043684
			0.588262 0.806378 -0.060849
			0.758378 0.458159 0.463629
			0.649411 0.198166 0.734163
			0.576459 -0.157193 0.801864
			0.070149 -0.432796 0.898759
			-0.128151 -0.211812 0.968872
			0.205814 -0.066109 0.976356
			0.439599 -0.003559 0.898187
			0.507548 0.051047 0.860110
			0.589093 0.244542 0.770174
			0.571060 0.039228 0.819970
			0.466195 -0.554417 0.689409
			0.088002 -0.988336 0.124291
			0.072744 0.942211 0.327027
			0.059809 0.960550 0.271599
			-0.011362 0.525420 0.850767
			-0.034389 -0.075795 0.996530
			-0.227603 -0.264750 0.937072
			-0.347929 -0.349952 0.869758
			-0.218996 -0.159145 0.962660
			-0.067122 -0.034571 0.997146
			0.019359 0.008886 0.999773
			0.059931 0.062260 0.996259
			0.038221 0.204395 0.978142
			0.043680 -0.118291 0.992018
			0.128822 -0.528395 0.839168
			0.258475 -0.913184 0.315096
			-0.131825 0.747330 0.651245
			-0.491246 0.625178 0.606490
			-0.691089 -0.065577 0.719789
			-0.584575 -0.462224 0.666799
			-0.669246 -0.266119 0.693751
			-0.547190 -0.099805 0.831036
			-0.354349 -0.057405 0.933349
			-0.429455 0.004159 0.903079
			-0.490486 0.035962 0.870707
			-0.444200 0.135895 0.885562
			-0.471979 0.075913 0.878336
			-0.210143 -0.498101 0.841270
			-0.133081 -0.652502 0.746010
			0.303267 -0.820990 0.483739
			-0.527693 0.779479 0.337568
			-0.882439 0.028445 0.469567
			-0.599710 -0.698808 0.389892
			-0.662129 -0.726642 0.183240
			-0.952134 -0.241740 0.187091
			-0.971908 -0.025183 0.234010
			-0.928517 -0.024277 0.370494
			-0.937881 0.020384 0.346358
			-0.945296 0.052371 0.321983
			-0.916424 0.189889 0.352290
			-0.912605 -0.065819 0.403509
			-0.362759 -0.842187 0.398908
			-0.404743 -0.837803 0.366429
			0.070341 -0.940786 0.331622
			-0.550829 0.829841 -0.089172
			-0.954306 0.036798 -0.296556
			-0.760038 -0.578089 -0.296909
			-0.723545 -0.634263 -0.272382
			-0.876578 -0.298393 -0.377589
			-0.892018 -0.040227 -0.450205
			-0.919171 -0.023773 -0.393141
			-0.928609 0.023476 -0.370317
			-0.943319 0.092036 -0.318869
			-0.936700 0.210759 -0.279597
			-0.925425 -0.116800 -0.360481
			-0.260863 -0.947328 -0.185797
			0.079465 -0.971020 -0.225399
			0.418272 -0.822803 -0.384766
			-0.392796 0.909407 -0.136712
			-0.617459 0.411828 -0.670181
			-0.595733 -0.193953 -0.779413
			-0.501296 -0.515528 -0.694933
			-0.393283 -0.376425 -0.838828
			-0.318916 -0.059046 -0.945942
			-0.415989 -0.011959 -0.909291
			-0.469865 0.036753 -0.881973
			-0.521779 0.189966 -0.831661
			-0.571050 0.264192 -0.777242
			-0.492199 -0.168060 -0.854105
			0.205138 -0.945855 -0.251550
			0.739518 -0.652172 0.166689
			0.745720 -0.622270 -0.238081
		</DataArray>
	</PointData>
	<Points>
		<DataArray type="Float32" NumberOfComponents="3" format="ascii">
			0.006000 -0.031255 0.003181
			0.006000 -0.028520 -0.008335
			0.006000 -0.038777 -0.028074
			0.006000 -0.048694 -0.029719
			0.006000 -0.068186 -0.023687
			0.006000 -0.079129 -0.013818
			0.006000 -0.133499 -0.007785
			0.006000 -0.235059 -0.005866
			0.006000 -0.304476 -0.006689
			0.006000 -0.368081 -0.011350
			0.006000 -0.390306 -0.020945
			0.006000 -0.405352 -0.023414
			0.006000 -0.415269 -0.017380
			0.006000 -0.403302 -0.013269
			0.006000 -0.400565 -0.008882
			0.006000 -0.403984 0.003181
			0.016460 -0.031255 -0.009683
			0.023854 -0.040317 -0.018777
			0.024485 -0.052627 -0.019554
			0.024937 -0.068357 -0.020108
			0.022682 -0.080667 -0.017336
			0.019616 -0.117256 -0.013565
			0.017092 -0.186161 -0.010460
			0.014837 -0.254550 -0.007688
			0.014927 -0.320036 -0.007798
			0.018624 -0.365173 -0.012346
			0.020879 -0.396121 -0.015118
			0.020788 -0.406891 -0.015007
			0.018263 -0.405010 -0.011902
			0.013214 -0.404839 -0.005692
			0.027593 -0.033990 -0.003088
			0.030512 -0.041855 -0.003937
			0.030804 -0.056559 -0.004021
			0.038683 -0.068529 -0.006308
			0.039000 -0.082205 -0.007241
			0.038389 -0.101014 -0.006224
			0.032262 -0.137261 -0.004445
			0.024092 -0.204625 -0.002072
			0.019423 -0.271990 -0.000716
			0.021174 -0.340039 -0.001225
			0.025842 -0.386886 -0.002580
			0.031970 -0.398514 -0.004361
			0.028176 -0.406719 -0.003259
			0.016505 -0.409115 0.000131
			0.027593 -0.033990 0.009449
			0.030512 -0.041855 0.010298
			0.030804 -0.056559 0.010382
			0.038683 -0.068529 0.012669
			0.039000 -0.082205 0.013603
			0.038389 -0.101014 0.012585
			0.032262 -0.137261 0.010806
			0.024092 -0.204625 0.008433
			0.019423 -0.271990 0.007078
			0.021174 -0.340039 0.007586
			0.025842 -0.386886 0.008942
			0.031970 -0.398514 0.010722
			0.028176 -0.406719 0.009620
			0.016505 -0.409115 0.006230
			0.016009 -0.034675 0.015491
			0.019165 -0.036555 0.019372
			0.024576 -0.045959 0.026026
			0.027371 -0.062202 0.029463
			0.028633 -0.070580 0.031017
			0.024304 -0.084087 0.025692
			0.019797 -0.110418 0.020148
			0.015558 -0.169404 0.014935
			0.013754 -0.253356 0.012718
			0.014566 -0.320720 0.013717
			0.017812 -0.378509 0.017707
			0.022051 -0.392871 0.022920
			0.019616 -0.403472 0.019927
			0.013574 -0.409115 0.012495
			0.006000 -0.035359 0.013324
			0.006000 -0.031255 0.020178
			0.006000 -0.035359 0.036354
			0.006000 -0.055875 0.037450
			0.006000 -0.058953 0.038273
			0.006000 -0.067159 0.028403
			0.006000 -0.083575 0.020452
			0.006000 -0.134183 0.015243
			0.006000 -0.234718 0.014147
			0.006000 -0.301399 0.014970
			0.006000 -0.370131 0.020452
			0.006000 -0.387229 0.027580
			0.006000 -0.400223 0.023742
			0.006000 -0.409115 0.016339
			-0.007525 -0.034503 0.019815
			-0.011132 -0.042881 0.024252
			-0.015371 -0.047497 0.029463
			-0.013477 -0.059294 0.027134
			-0.011312 -0.069554 0.024473
			-0.007256 -0.101014 0.019482
			-0.004641 -0.126660 0.016267
			-0.001394 -0.202231 0.012274
			-0.002747 -0.286523 0.013938
			-0.003198 -0.336963 0.014492
			-0.008879 -0.388938 0.021478
			-0.010321 -0.400052 0.023253
			-0.005542 -0.406550 0.017376
			-0.001935 -0.414585 0.012939
			-0.026973 -0.033649 0.012754
			-0.031351 -0.054507 0.014025
			-0.027850 -0.059636 0.013008
			-0.020554 -0.062715 0.010890
			-0.012676 -0.080155 0.008602
			-0.010049 -0.134867 0.007841
			-0.010049 -0.169746 0.007841
			-0.005088 -0.270283 0.006401
			-0.010632 -0.338330 0.008009
			-0.011216 -0.372526 0.008178
			-0.023764 -0.407746 0.011821
			-0.020846 -0.412876 0.010974
			-0.009466 -0.412876 0.007671
			-0.005672 -0.420056 0.006569
			-0.026973 -0.033649 -0.006393
			-0.031351 -0.054507 -0.007664
			-0.027850 -0.059636 -0.006647
			-0.020554 -0.062715 -0.004528
			-0.012676 -0.080155 -0.002242
			-0.010049 -0.134867 -0.001480
			-0.010049 -0.169746 -0.001480
			-0.005088 -0.270283 -0.000040
			-0.010632 -0.338330 -0.001648
			-0.011216 -0.372526 -0.001817
			-0.023764 -0.407746 -0.005459
			-0.020846 -0.412876 -0.004614
			-0.009466 -0.412876 -0.001310
			-0.005672 -0.420056 -0.000207
			-0.007977 -0.031083 -0.014009
			-0.015821 -0.046642 -0.023657
			-0.015280 -0.054165 -0.022992
			-0.011042 -0.065450 -0.017780
			-0.005362 -0.079642 -0.010793
			-0.002566 -0.134183 -0.007355
			-0.001935 -0.202403 -0.006578
			-0.000673 -0.287377 -0.005027
			-0.003919 -0.353205 -0.009019
			-0.007256 -0.381415 -0.013121
			-0.011944 -0.406550 -0.018889
			-0.009058 -0.414073 -0.015340
			-0.004190 -0.408089 -0.009352
			-0.001574 -0.410312 -0.006135
		</DataArray>
	</Points>
			<Polys>
				<DataArray type="Int32" Name="connectivity" format="ascii">
					16 1 0 
					16 17 2 1 
					17 18 3 2 
					18 19 4 3 
					19 20 5 4 
					20 21 6 5 
					21 22 7 6 
					22 23 8 7 
					23 24 9 8 
					24 25 10 9 
					25 26 11 10 
					26 27 12 11 
					27 28 13 12 
					28 29 14 13 
					29 15 14 
					30 16 0 
					30 31 17 16 
					31 32 18 17 
					32 33 19 18 
					19 34 20 
					33 34 19 
					20 35 21 
					34 35 20 
					35 36 22 21 
					36 37 23 22 
					37 38 24 23 
					38 39 25 24 
					39 40 26 25 
					40 41 27 26 
					41 42 28 27 
					42 43 29 28 
					43 15 29 
					44 30 0 
					44 45 31 30 
					45 46 32 31 
					46 47 33 32 
					33 48 34 
					47 48 33 
					34 49 35 
					48 49 34 
					49 50 36 35 
					50 51 37 36 
					51 52 38 37 
					52 53 39 38 
					53 54 40 39 
					54 55 41 40 
					55 56 42 41 
					56 57 43 42 
					57 15 43 
					58 44 0 
					58 59 45 44 
					59 60 46 45 
					60 61 47 46 
					47 62 48 
					61 62 47 
					48 63 49 
					62 63 48 
					63 64 50 49 
					64 65 51 50 
					65 66 52 51 
					66 67 53 52 
					67 68 54 53 
					68 69 55 54 
					69 70 56 55 
					70 71 57 56 
					71 15 57 
					72 58 0 
					72 73 59 58 
					73 74 60 59 
					74 75 61 60 
					75 76 62 61 
					76 77 63 62 
					77 78 64 63 
					78 79 65 64 
					79 80 66 65 
					80 81 67 66 
					81 82 68 67 
					82 83 69 68 
					83 84 70 69 
					84 85 71 70 
					85 15 71 
					86 72 0 
					86 87 73 72 
					87 88 74 73 
					88 89 75 74 
					89 90 76 75 
					90 91 77 76 
					91 92 78 77 
					92 93 79 78 
					93 94 80 79 
					94 95 81 80 
					95 96 82 81 
					96 97 83 82 
					97 98 84 83 
					98 99 85 84 
					99 15 85 
					100 86 0 
					100 101 87 86 
					101 102 88 
					101 88 87 
					102 103 89 88 
					103 104 90 89 
					104 105 91 90 
					105 106 92 91 
					106 107 93 92 
					107 108 94 93 
					108 109 95 94 
					109 110 96 95 
					110 111 97 96 
					111 112 98 97 
					112 113 99 98 
					113 15 99 
					114 100 0 
					114 115 101 100 
					115 116 102 101 
					116 117 103 102 
					117 118 104 103 
					118 119 105 104 
					119 120 106 105 
					120 121 107 106 
					121 122 108 107 
					122 123 109 108 
					123 124 110 109 
					124 125 111 110 
					125 126 112 111 
					126 127 113 112 
					127 15 113 
					128 114 0 
					128 129 115 114 
					129 130 116 115 
					130 131 117 116 
					131 132 118 117 
					132 133 119 118 
					133 134 120 119 
					134 135 121 120 
					135 136 122 121 
					136 137 123 122 
					137 138 124 123 
					138 139 125 124 
					139 140 126 125 
					140 141 127 126 
					141 15 127 
					1 128 0 
					1 2 129 128 
					2 3 130 129 
					3 4 131 130 
					4 5 132 131 
					5 6 133 132 
					6 7 134 133 
					7 8 135 134 
					8 9 136 135 
					9 10 137 136 
					10 11 138 137 
					11 12 139 138 
					12 13 140 139 
					13 14 141 140 
					14 15 141 
					102 89 88 
				</DataArray>
				<DataArray type="Int32" Name="offsets" format="ascii">
					3 7 11 15 19 23 27 31 35 39 43 47 51 55 58 61 65 69 73 76 79 82 85 89 93 97 101 105 109 113 117 120 123 127 131 135 138 141 144 147 151 155 159 163 167 171 175 179 182 185 189 193 197 200 203 206 209 213 217 221 225 229 233 237 241 244 247 251 255 259 263 267 271 275 279 283 287 291 295 299 302 305 309 313 317 321 325 329 333 337 341 345 349 353 357 360 363 367 370 373 377 381 385 389 393 397 401 405 409 413 417 420 423 427 431 435 439 443 447 451 455 459 463 467 471 475 478 481 485 489 493 497 501 505 509 513 517 521 525 529 533 536 539 543 547 551 555 559 563 567 571 575 579 583 587 591 594 597 
				</DataArray>
			</Polys>
		</Piece>
	</PolyData>
</VTKFile>
